#LAMMPS data file for cubic lattice with middle particle bonds

471 atoms
2014 bonds
1 atom types
2 bond types
-27.0 27.0 xlo xhi
-27.0 27.0 ylo yhi
-2.0 2.0 zlo zhi

Masses

1 1.0

Bond Coeffs

1 0.1 1
2 0.1 0.8660254037844386

Atoms

1 1 -10.0 0.0 -0.5 0 0.01 0.0 0 0 0 0.0 0
2 1 -9.5 0.5 0.0 0 0.01 0.0 0 0 0 0.0 0
3 1 -10.0 0.0 0.5 0 0.01 0.0 0 0 0 0.0 0
4 1 -9.0 0.0 -0.5 0 0.01 0.0 0 0 0 0.0 0
5 1 -8.5 0.5 0.0 0 0.01 0.0 0 0 0 0.0 0
6 1 -9.0 0.0 0.5 0 0.01 0.0 0 0 0 0.0 0
7 1 -9.0 1.0 -0.5 0 0.01 0.0 0 0 0 0.0 0
8 1 -8.5 1.5 0.0 0 0.01 0.0 0 0 0 0.0 0
9 1 -9.0 1.0 0.5 0 0.01 0.0 0 0 0 0.0 0
10 1 -9.0 2.0 -0.5 0 0.01 0.0 0 0 0 0.0 0
11 1 -8.5 2.5 0.0 0 0.01 0.0 0 0 0 0.0 0
12 1 -9.0 2.0 0.5 0 0.01 0.0 0 0 0 0.0 0
13 1 -8.0 0.0 -0.5 0 0.01 0.0 0 0 0 0.0 0
14 1 -7.5 0.5 0.0 0 0.01 0.0 0 0 0 0.0 0
15 1 -8.0 0.0 0.5 0 0.01 0.0 0 0 0 0.0 0
16 1 -8.0 1.0 -0.5 0 0.01 0.0 0 0 0 0.0 0
17 1 -7.5 1.5 0.0 0 0.01 0.0 0 0 0 0.0 0
18 1 -8.0 1.0 0.5 0 0.01 0.0 0 0 0 0.0 0
19 1 -8.0 2.0 -0.5 0 0.01 0.0 0 0 0 0.0 0
20 1 -7.5 2.5 0.0 0 0.01 0.0 0 0 0 0.0 0
21 1 -8.0 2.0 0.5 0 0.01 0.0 0 0 0 0.0 0
22 1 -8.0 3.0 -0.5 0 0.01 0.0 0 0 0 0.0 0
23 1 -7.5 3.5 0.0 0 0.01 0.0 0 0 0 0.0 0
24 1 -8.0 3.0 0.5 0 0.01 0.0 0 0 0 0.0 0
25 1 -7.0 0.0 -0.5 0 0.01 0.0 0 0 0 0.0 0
26 1 -6.5 0.5 0.0 0 0.01 0.0 0 0 0 0.0 0
27 1 -7.0 0.0 0.5 0 0.01 0.0 0 0 0 0.0 0
28 1 -7.0 1.0 -0.5 0 0.01 0.0 0 0 0 0.0 0
29 1 -6.5 1.5 0.0 0 0.01 0.0 0 0 0 0.0 0
30 1 -7.0 1.0 0.5 0 0.01 0.0 0 0 0 0.0 0
31 1 -7.0 2.0 -0.5 0 0.01 0.0 0 0 0 0.0 0
32 1 -6.5 2.5 0.0 0 0.01 0.0 0 0 0 0.0 0
33 1 -7.0 2.0 0.5 0 0.01 0.0 0 0 0 0.0 0
34 1 -7.0 3.0 -0.5 0 0.01 0.0 0 0 0 0.0 0
35 1 -6.5 3.5 0.0 0 0.01 0.0 0 0 0 0.0 0
36 1 -7.0 3.0 0.5 0 0.01 0.0 0 0 0 0.0 0
37 1 -7.0 4.0 -0.5 0 0.01 0.0 0 0 0 0.0 0
38 1 -6.5 4.5 0.0 0 0.01 0.0 0 0 0 0.0 0
39 1 -7.0 4.0 0.5 0 0.01 0.0 0 0 0 0.0 0
40 1 -5.5 -5.5 0.0 0 0.01 0.0 0 0 0 0.0 0
41 1 -5.5 -4.5 0.0 0 0.01 0.0 0 0 0 0.0 0
42 1 -6.0 -4.0 -0.5 0 0.01 0.0 0 0 0 0.0 0
43 1 -5.5 -3.5 0.0 0 0.01 0.0 0 0 0 0.0 0
44 1 -6.0 -4.0 0.5 0 0.01 0.0 0 0 0 0.0 0
45 1 -6.0 -3.0 -0.5 0 0.01 0.0 0 0 0 0.0 0
46 1 -5.5 -2.5 0.0 0 0.01 0.0 0 0 0 0.0 0
47 1 -6.0 -3.0 0.5 0 0.01 0.0 0 0 0 0.0 0
48 1 -6.0 -2.0 -0.5 0 0.01 0.0 0 0 0 0.0 0
49 1 -5.5 -1.5 0.0 0 0.01 0.0 0 0 0 0.0 0
50 1 -6.0 -2.0 0.5 0 0.01 0.0 0 0 0 0.0 0
51 1 -6.0 -1.0 -0.5 0 0.01 0.0 0 0 0 0.0 0
52 1 -5.5 -0.5 0.0 0 0.01 0.0 0 0 0 0.0 0
53 1 -6.0 -1.0 0.5 0 0.01 0.0 0 0 0 0.0 0
54 1 -6.0 0.0 -0.5 0 0.01 0.0 0 0 0 0.0 0
55 1 -5.5 0.5 0.0 0 0.01 0.0 0 0 0 0.0 0
56 1 -6.0 0.0 0.5 0 0.01 0.0 0 0 0 0.0 0
57 1 -6.0 1.0 -0.5 0 0.01 0.0 0 0 0 0.0 0
58 1 -5.5 1.5 0.0 0 0.01 0.0 0 0 0 0.0 0
59 1 -6.0 1.0 0.5 0 0.01 0.0 0 0 0 0.0 0
60 1 -6.0 2.0 -0.5 0 0.01 0.0 0 0 0 0.0 0
61 1 -5.5 2.5 0.0 0 0.01 0.0 0 0 0 0.0 0
62 1 -6.0 2.0 0.5 0 0.01 0.0 0 0 0 0.0 0
63 1 -6.0 3.0 -0.5 0 0.01 0.0 0 0 0 0.0 0
64 1 -5.5 3.5 0.0 0 0.01 0.0 0 0 0 0.0 0
65 1 -6.0 3.0 0.5 0 0.01 0.0 0 0 0 0.0 0
66 1 -6.0 4.0 -0.5 0 0.01 0.0 0 0 0 0.0 0
67 1 -5.5 4.5 0.0 0 0.01 0.0 0 0 0 0.0 0
68 1 -6.0 4.0 0.5 0 0.01 0.0 0 0 0 0.0 0
69 1 -6.0 5.0 -0.5 0 0.01 0.0 0 0 0 0.0 0
70 1 -5.5 5.5 0.0 0 0.01 0.0 0 0 0 0.0 0
71 1 -6.0 5.0 0.5 0 0.01 0.0 0 0 0 0.0 0
72 1 -4.5 -6.5 0.0 0 0.01 0.0 0 0 0 0.0 0
73 1 -5.0 -6.0 -0.5 0 0.01 0.0 0 0 0 0.0 0
74 1 -4.5 -5.5 0.0 0 0.01 0.0 0 0 0 0.0 0
75 1 -5.0 -6.0 0.5 0 0.01 0.0 0 0 0 0.0 0
76 1 -5.0 -5.0 -0.5 0 0.01 0.0 0 0 0 0.0 0
77 1 -4.5 -4.5 0.0 0 0.01 0.0 0 0 0 0.0 0
78 1 -5.0 -5.0 0.5 0 0.01 0.0 0 0 0 0.0 0
79 1 -5.0 -4.0 -0.5 0 0.01 0.0 0 0 0 0.0 0
80 1 -4.5 -3.5 0.0 0 0.01 0.0 0 0 0 0.0 0
81 1 -5.0 -4.0 0.5 0 0.01 0.0 0 0 0 0.0 0
82 1 -5.0 -3.0 -0.5 0 0.01 0.0 0 0 0 0.0 0
83 1 -4.5 -2.5 0.0 0 0.01 0.0 0 0 0 0.0 0
84 1 -5.0 -3.0 0.5 0 0.01 0.0 0 0 0 0.0 0
85 1 -5.0 -2.0 -0.5 0 0.01 0.0 0 0 0 0.0 0
86 1 -4.5 -1.5 0.0 0 0.01 0.0 0 0 0 0.0 0
87 1 -5.0 -2.0 0.5 0 0.01 0.0 0 0 0 0.0 0
88 1 -5.0 -1.0 -0.5 0 0.01 0.0 0 0 0 0.0 0
89 1 -4.5 -0.5 0.0 0 0.01 0.0 0 0 0 0.0 0
90 1 -5.0 -1.0 0.5 0 0.01 0.0 0 0 0 0.0 0
91 1 -5.0 0.0 -0.5 0 0.01 0.0 0 0 0 0.0 0
92 1 -4.5 0.5 0.0 0 0.01 0.0 0 0 0 0.0 0
93 1 -5.0 0.0 0.5 0 0.01 0.0 0 0 0 0.0 0
94 1 -5.0 1.0 -0.5 0 0.01 0.0 0 0 0 0.0 0
95 1 -4.5 1.5 0.0 0 0.01 0.0 0 0 0 0.0 0
96 1 -5.0 1.0 0.5 0 0.01 0.0 0 0 0 0.0 0
97 1 -5.0 2.0 -0.5 0 0.01 0.0 0 0 0 0.0 0
98 1 -4.5 2.5 0.0 0 0.01 0.0 0 0 0 0.0 0
99 1 -5.0 2.0 0.5 0 0.01 0.0 0 0 0 0.0 0
100 1 -5.0 3.0 -0.5 0 0.01 0.0 0 0 0 0.0 0
101 1 -4.5 3.5 0.0 0 0.01 0.0 0 0 0 0.0 0
102 1 -5.0 3.0 0.5 0 0.01 0.0 0 0 0 0.0 0
103 1 -5.0 4.0 -0.5 0 0.01 0.0 0 0 0 0.0 0
104 1 -4.5 4.5 0.0 0 0.01 0.0 0 0 0 0.0 0
105 1 -5.0 4.0 0.5 0 0.01 0.0 0 0 0 0.0 0
106 1 -5.0 5.0 -0.5 0 0.01 0.0 0 0 0 0.0 0
107 1 -4.5 5.5 0.0 0 0.01 0.0 0 0 0 0.0 0
108 1 -5.0 5.0 0.5 0 0.01 0.0 0 0 0 0.0 0
109 1 -3.5 -7.5 0.0 0 0.01 0.0 0 0 0 0.0 0
110 1 -4.0 -7.0 -0.5 0 0.01 0.0 0 0 0 0.0 0
111 1 -3.5 -6.5 0.0 0 0.01 0.0 0 0 0 0.0 0
112 1 -4.0 -7.0 0.5 0 0.01 0.0 0 0 0 0.0 0
113 1 -4.0 -6.0 -0.5 0 0.01 0.0 0 0 0 0.0 0
114 1 -3.5 -5.5 0.0 0 0.01 0.0 0 0 0 0.0 0
115 1 -4.0 -6.0 0.5 0 0.01 0.0 0 0 0 0.0 0
116 1 -4.0 -5.0 -0.5 0 0.01 0.0 0 0 0 0.0 0
117 1 -3.5 -4.5 0.0 0 0.01 0.0 0 0 0 0.0 0
118 1 -4.0 -5.0 0.5 0 0.01 0.0 0 0 0 0.0 0
119 1 -4.0 -4.0 -0.5 0 0.01 0.0 0 0 0 0.0 0
120 1 -3.5 -3.5 0.0 0 0.01 0.0 0 0 0 0.0 0
121 1 -4.0 -4.0 0.5 0 0.01 0.0 0 0 0 0.0 0
122 1 -4.0 -3.0 -0.5 0 0.01 0.0 0 0 0 0.0 0
123 1 -3.5 -2.5 0.0 0 0.01 0.0 0 0 0 0.0 0
124 1 -4.0 -3.0 0.5 0 0.01 0.0 0 0 0 0.0 0
125 1 -4.0 -2.0 -0.5 0 0.01 0.0 0 0 0 0.0 0
126 1 -3.5 -1.5 0.0 0 0.01 0.0 0 0 0 0.0 0
127 1 -4.0 -2.0 0.5 0 0.01 0.0 0 0 0 0.0 0
128 1 -4.0 -1.0 -0.5 0 0.01 0.0 0 0 0 0.0 0
129 1 -3.5 -0.5 0.0 0 0.01 0.0 0 0 0 0.0 0
130 1 -4.0 -1.0 0.5 0 0.01 0.0 0 0 0 0.0 0
131 1 -4.0 0.0 -0.5 0 0.01 0.0 0 0 0 0.0 0
132 1 -3.5 0.5 0.0 0 0.01 0.0 0 0 0 0.0 0
133 1 -4.0 0.0 0.5 0 0.01 0.0 0 0 0 0.0 0
134 1 -4.0 1.0 -0.5 0 0.01 0.0 0 0 0 0.0 0
135 1 -3.5 1.5 0.0 0 0.01 0.0 0 0 0 0.0 0
136 1 -4.0 1.0 0.5 0 0.01 0.0 0 0 0 0.0 0
137 1 -4.0 2.0 -0.5 0 0.01 0.0 0 0 0 0.0 0
138 1 -3.5 2.5 0.0 0 0.01 0.0 0 0 0 0.0 0
139 1 -4.0 2.0 0.5 0 0.01 0.0 0 0 0 0.0 0
140 1 -4.0 3.0 -0.5 0 0.01 0.0 0 0 0 0.0 0
141 1 -3.5 3.5 0.0 0 0.01 0.0 0 0 0 0.0 0
142 1 -4.0 3.0 0.5 0 0.01 0.0 0 0 0 0.0 0
143 1 -4.0 4.0 -0.5 0 0.01 0.0 0 0 0 0.0 0
144 1 -3.5 4.5 0.0 0 0.01 0.0 0 0 0 0.0 0
145 1 -4.0 4.0 0.5 0 0.01 0.0 0 0 0 0.0 0
146 1 -4.0 5.0 -0.5 0 0.01 0.0 0 0 0 0.0 0
147 1 -3.5 5.5 0.0 0 0.01 0.0 0 0 0 0.0 0
148 1 -4.0 5.0 0.5 0 0.01 0.0 0 0 0 0.0 0
149 1 -4.0 6.0 -0.5 0 0.01 0.0 0 0 0 0.0 0
150 1 -4.0 6.0 0.5 0 0.01 0.0 0 0 0 0.0 0
151 1 -2.5 -8.5 0.0 0 0.01 0.0 0 0 0 0.0 0
152 1 -3.0 -8.0 -0.5 0 0.01 0.0 0 0 0 0.0 0
153 1 -2.5 -7.5 0.0 0 0.01 0.0 0 0 0 0.0 0
154 1 -3.0 -8.0 0.5 0 0.01 0.0 0 0 0 0.0 0
155 1 -3.0 -7.0 -0.5 0 0.01 0.0 0 0 0 0.0 0
156 1 -2.5 -6.5 0.0 0 0.01 0.0 0 0 0 0.0 0
157 1 -3.0 -7.0 0.5 0 0.01 0.0 0 0 0 0.0 0
158 1 -3.0 -6.0 -0.5 0 0.01 0.0 0 0 0 0.0 0
159 1 -2.5 -5.5 0.0 0 0.01 0.0 0 0 0 0.0 0
160 1 -3.0 -6.0 0.5 0 0.01 0.0 0 0 0 0.0 0
161 1 -3.0 -5.0 -0.5 0 0.01 0.0 0 0 0 0.0 0
162 1 -2.5 -4.5 0.0 0 0.01 0.0 0 0 0 0.0 0
163 1 -3.0 -5.0 0.5 0 0.01 0.0 0 0 0 0.0 0
164 1 -3.0 -4.0 -0.5 0 0.01 0.0 0 0 0 0.0 0
165 1 -2.5 -3.5 0.0 0 0.01 0.0 0 0 0 0.0 0
166 1 -3.0 -4.0 0.5 0 0.01 0.0 0 0 0 0.0 0
167 1 -3.0 -3.0 -0.5 0 0.01 0.0 0 0 0 0.0 0
168 1 -2.5 -2.5 0.0 0 0.01 0.0 0 0 0 0.0 0
169 1 -3.0 -3.0 0.5 0 0.01 0.0 0 0 0 0.0 0
170 1 -3.0 3.0 -0.5 0 0.01 0.0 0 0 0 0.0 0
171 1 -2.5 3.5 0.0 0 0.01 0.0 0 0 0 0.0 0
172 1 -3.0 3.0 0.5 0 0.01 0.0 0 0 0 0.0 0
173 1 -3.0 4.0 -0.5 0 0.01 0.0 0 0 0 0.0 0
174 1 -2.5 4.5 0.0 0 0.01 0.0 0 0 0 0.0 0
175 1 -3.0 4.0 0.5 0 0.01 0.0 0 0 0 0.0 0
176 1 -3.0 5.0 -0.5 0 0.01 0.0 0 0 0 0.0 0
177 1 -2.5 5.5 0.0 0 0.01 0.0 0 0 0 0.0 0
178 1 -3.0 5.0 0.5 0 0.01 0.0 0 0 0 0.0 0
179 1 -3.0 6.0 -0.5 0 0.01 0.0 0 0 0 0.0 0
180 1 -3.0 6.0 0.5 0 0.01 0.0 0 0 0 0.0 0
181 1 -2.0 -9.0 -0.5 0 0.01 0.0 0 0 0 0.0 0
182 1 -1.5 -8.5 0.0 0 0.01 0.0 0 0 0 0.0 0
183 1 -2.0 -9.0 0.5 0 0.01 0.0 0 0 0 0.0 0
184 1 -2.0 -8.0 -0.5 0 0.01 0.0 0 0 0 0.0 0
185 1 -1.5 -7.5 0.0 0 0.01 0.0 0 0 0 0.0 0
186 1 -2.0 -8.0 0.5 0 0.01 0.0 0 0 0 0.0 0
187 1 -2.0 -7.0 -0.5 0 0.01 0.0 0 0 0 0.0 0
188 1 -1.5 -6.5 0.0 0 0.01 0.0 0 0 0 0.0 0
189 1 -2.0 -7.0 0.5 0 0.01 0.0 0 0 0 0.0 0
190 1 -2.0 -6.0 -0.5 0 0.01 0.0 0 0 0 0.0 0
191 1 -1.5 -5.5 0.0 0 0.01 0.0 0 0 0 0.0 0
192 1 -2.0 -6.0 0.5 0 0.01 0.0 0 0 0 0.0 0
193 1 -2.0 -5.0 -0.5 0 0.01 0.0 0 0 0 0.0 0
194 1 -1.5 -4.5 0.0 0 0.01 0.0 0 0 0 0.0 0
195 1 -2.0 -5.0 0.5 0 0.01 0.0 0 0 0 0.0 0
196 1 -2.0 -4.0 -0.5 0 0.01 0.0 0 0 0 0.0 0
197 1 -1.5 -3.5 0.0 0 0.01 0.0 0 0 0 0.0 0
198 1 -2.0 -4.0 0.5 0 0.01 0.0 0 0 0 0.0 0
199 1 -2.0 4.0 -0.5 0 0.01 0.0 0 0 0 0.0 0
200 1 -1.5 4.5 0.0 0 0.01 0.0 0 0 0 0.0 0
201 1 -2.0 4.0 0.5 0 0.01 0.0 0 0 0 0.0 0
202 1 -2.0 5.0 -0.5 0 0.01 0.0 0 0 0 0.0 0
203 1 -1.5 5.5 0.0 0 0.01 0.0 0 0 0 0.0 0
204 1 -2.0 5.0 0.5 0 0.01 0.0 0 0 0 0.0 0
205 1 -2.0 6.0 -0.5 0 0.01 0.0 0 0 0 0.0 0
206 1 -2.0 6.0 0.5 0 0.01 0.0 0 0 0 0.0 0
207 1 -0.5 -9.5 0.0 0 0.01 0.0 0 0 0 0.0 0
208 1 -1.0 -9.0 -0.5 0 0.01 0.0 0 0 0 0.0 0
209 1 -0.5 -8.5 0.0 0 0.01 0.0 0 0 0 0.0 0
210 1 -1.0 -9.0 0.5 0 0.01 0.0 0 0 0 0.0 0
211 1 -1.0 -8.0 -0.5 0 0.01 0.0 0 0 0 0.0 0
212 1 -0.5 -7.5 0.0 0 0.01 0.0 0 0 0 0.0 0
213 1 -1.0 -8.0 0.5 0 0.01 0.0 0 0 0 0.0 0
214 1 -1.0 -7.0 -0.5 0 0.01 0.0 0 0 0 0.0 0
215 1 -0.5 -6.5 0.0 0 0.01 0.0 0 0 0 0.0 0
216 1 -1.0 -7.0 0.5 0 0.01 0.0 0 0 0 0.0 0
217 1 -1.0 -6.0 -0.5 0 0.01 0.0 0 0 0 0.0 0
218 1 -0.5 -5.5 0.0 0 0.01 0.0 0 0 0 0.0 0
219 1 -1.0 -6.0 0.5 0 0.01 0.0 0 0 0 0.0 0
220 1 -1.0 -5.0 -0.5 0 0.01 0.0 0 0 0 0.0 0
221 1 -0.5 -4.5 0.0 0 0.01 0.0 0 0 0 0.0 0
222 1 -1.0 -5.0 0.5 0 0.01 0.0 0 0 0 0.0 0
223 1 -1.0 -4.0 -0.5 0 0.01 0.0 0 0 0 0.0 0
224 1 -0.5 -3.5 0.0 0 0.01 0.0 0 0 0 0.0 0
225 1 -1.0 -4.0 0.5 0 0.01 0.0 0 0 0 0.0 0
226 1 -1.0 4.0 -0.5 0 0.01 0.0 0 0 0 0.0 0
227 1 -0.5 4.5 0.0 0 0.01 0.0 0 0 0 0.0 0
228 1 -1.0 4.0 0.5 0 0.01 0.0 0 0 0 0.0 0
229 1 -1.0 5.0 -0.5 0 0.01 0.0 0 0 0 0.0 0
230 1 -0.5 5.5 0.0 0 0.01 0.0 0 0 0 0.0 0
231 1 -1.0 5.0 0.5 0 0.01 0.0 0 0 0 0.0 0
232 1 -1.0 6.0 -0.5 0 0.01 0.0 0 0 0 0.0 0
233 1 -1.0 6.0 0.5 0 0.01 0.0 0 0 0 0.0 0
234 1 0.0 -6.0 -0.5 0 0.01 0.0 0 0 0 0.0 0
235 1 0.5 -5.5 0.0 0 0.01 0.0 0 0 0 0.0 0
236 1 0.0 -6.0 0.5 0 0.01 0.0 0 0 0 0.0 0
237 1 0.0 -5.0 -0.5 0 0.01 0.0 0 0 0 0.0 0
238 1 0.5 -4.5 0.0 0 0.01 0.0 0 0 0 0.0 0
239 1 0.0 -5.0 0.5 0 0.01 0.0 0 0 0 0.0 0
240 1 0.0 -4.0 -0.5 0 0.01 0.0 0 0 0 0.0 0
241 1 0.5 -3.5 0.0 0 0.01 0.0 0 0 0 0.0 0
242 1 0.0 -4.0 0.5 0 0.01 0.0 0 0 0 0.0 0
243 1 0.0 4.0 -0.5 0 0.01 0.0 0 0 0 0.0 0
244 1 0.5 4.5 0.0 0 0.01 0.0 0 0 0 0.0 0
245 1 0.0 4.0 0.5 0 0.01 0.0 0 0 0 0.0 0
246 1 0.0 5.0 -0.5 0 0.01 0.0 0 0 0 0.0 0
247 1 0.5 5.5 0.0 0 0.01 0.0 0 0 0 0.0 0
248 1 0.0 5.0 0.5 0 0.01 0.0 0 0 0 0.0 0
249 1 0.0 6.0 -0.5 0 0.01 0.0 0 0 0 0.0 0
250 1 0.5 6.5 0.0 0 0.01 0.0 0 0 0 0.0 0
251 1 0.0 6.0 0.5 0 0.01 0.0 0 0 0 0.0 0
252 1 0.0 7.0 -0.5 0 0.01 0.0 0 0 0 0.0 0
253 1 0.5 7.5 0.0 0 0.01 0.0 0 0 0 0.0 0
254 1 0.0 7.0 0.5 0 0.01 0.0 0 0 0 0.0 0
255 1 0.0 8.0 -0.5 0 0.01 0.0 0 0 0 0.0 0
256 1 0.5 8.5 0.0 0 0.01 0.0 0 0 0 0.0 0
257 1 0.0 8.0 0.5 0 0.01 0.0 0 0 0 0.0 0
258 1 0.0 9.0 -0.5 0 0.01 0.0 0 0 0 0.0 0
259 1 0.5 9.5 0.0 0 0.01 0.0 0 0 0 0.0 0
260 1 0.0 9.0 0.5 0 0.01 0.0 0 0 0 0.0 0
261 1 0.0 10.0 -0.5 0 0.01 0.0 0 0 0 0.0 0
262 1 0.0 10.0 0.5 0 0.01 0.0 0 0 0 0.0 0
263 1 1.0 -6.0 -0.5 0 0.01 0.0 0 0 0 0.0 0
264 1 1.5 -5.5 0.0 0 0.01 0.0 0 0 0 0.0 0
265 1 1.0 -6.0 0.5 0 0.01 0.0 0 0 0 0.0 0
266 1 1.0 -5.0 -0.5 0 0.01 0.0 0 0 0 0.0 0
267 1 1.5 -4.5 0.0 0 0.01 0.0 0 0 0 0.0 0
268 1 1.0 -5.0 0.5 0 0.01 0.0 0 0 0 0.0 0
269 1 1.0 -4.0 -0.5 0 0.01 0.0 0 0 0 0.0 0
270 1 1.5 -3.5 0.0 0 0.01 0.0 0 0 0 0.0 0
271 1 1.0 -4.0 0.5 0 0.01 0.0 0 0 0 0.0 0
272 1 1.0 4.0 -0.5 0 0.01 0.0 0 0 0 0.0 0
273 1 1.5 4.5 0.0 0 0.01 0.0 0 0 0 0.0 0
274 1 1.0 4.0 0.5 0 0.01 0.0 0 0 0 0.0 0
275 1 1.0 5.0 -0.5 0 0.01 0.0 0 0 0 0.0 0
276 1 1.5 5.5 0.0 0 0.01 0.0 0 0 0 0.0 0
277 1 1.0 5.0 0.5 0 0.01 0.0 0 0 0 0.0 0
278 1 1.0 6.0 -0.5 0 0.01 0.0 0 0 0 0.0 0
279 1 1.5 6.5 0.0 0 0.01 0.0 0 0 0 0.0 0
280 1 1.0 6.0 0.5 0 0.01 0.0 0 0 0 0.0 0
281 1 1.0 7.0 -0.5 0 0.01 0.0 0 0 0 0.0 0
282 1 1.5 7.5 0.0 0 0.01 0.0 0 0 0 0.0 0
283 1 1.0 7.0 0.5 0 0.01 0.0 0 0 0 0.0 0
284 1 1.0 8.0 -0.5 0 0.01 0.0 0 0 0 0.0 0
285 1 1.5 8.5 0.0 0 0.01 0.0 0 0 0 0.0 0
286 1 1.0 8.0 0.5 0 0.01 0.0 0 0 0 0.0 0
287 1 1.0 9.0 -0.5 0 0.01 0.0 0 0 0 0.0 0
288 1 1.0 9.0 0.5 0 0.01 0.0 0 0 0 0.0 0
289 1 2.0 -6.0 -0.5 0 0.01 0.0 0 0 0 0.0 0
290 1 2.5 -5.5 0.0 0 0.01 0.0 0 0 0 0.0 0
291 1 2.0 -6.0 0.5 0 0.01 0.0 0 0 0 0.0 0
292 1 2.0 -5.0 -0.5 0 0.01 0.0 0 0 0 0.0 0
293 1 2.5 -4.5 0.0 0 0.01 0.0 0 0 0 0.0 0
294 1 2.0 -5.0 0.5 0 0.01 0.0 0 0 0 0.0 0
295 1 2.0 -4.0 -0.5 0 0.01 0.0 0 0 0 0.0 0
296 1 2.5 -3.5 0.0 0 0.01 0.0 0 0 0 0.0 0
297 1 2.0 -4.0 0.5 0 0.01 0.0 0 0 0 0.0 0
298 1 2.0 4.0 -0.5 0 0.01 0.0 0 0 0 0.0 0
299 1 2.5 4.5 0.0 0 0.01 0.0 0 0 0 0.0 0
300 1 2.0 4.0 0.5 0 0.01 0.0 0 0 0 0.0 0
301 1 2.0 5.0 -0.5 0 0.01 0.0 0 0 0 0.0 0
302 1 2.5 5.5 0.0 0 0.01 0.0 0 0 0 0.0 0
303 1 2.0 5.0 0.5 0 0.01 0.0 0 0 0 0.0 0
304 1 2.0 6.0 -0.5 0 0.01 0.0 0 0 0 0.0 0
305 1 2.5 6.5 0.0 0 0.01 0.0 0 0 0 0.0 0
306 1 2.0 6.0 0.5 0 0.01 0.0 0 0 0 0.0 0
307 1 2.0 7.0 -0.5 0 0.01 0.0 0 0 0 0.0 0
308 1 2.5 7.5 0.0 0 0.01 0.0 0 0 0 0.0 0
309 1 2.0 7.0 0.5 0 0.01 0.0 0 0 0 0.0 0
310 1 2.0 8.0 -0.5 0 0.01 0.0 0 0 0 0.0 0
311 1 2.5 8.5 0.0 0 0.01 0.0 0 0 0 0.0 0
312 1 2.0 8.0 0.5 0 0.01 0.0 0 0 0 0.0 0
313 1 2.0 9.0 -0.5 0 0.01 0.0 0 0 0 0.0 0
314 1 2.0 9.0 0.5 0 0.01 0.0 0 0 0 0.0 0
315 1 3.0 -6.0 -0.5 0 0.01 0.0 0 0 0 0.0 0
316 1 3.5 -5.5 0.0 0 0.01 0.0 0 0 0 0.0 0
317 1 3.0 -6.0 0.5 0 0.01 0.0 0 0 0 0.0 0
318 1 3.0 -5.0 -0.5 0 0.01 0.0 0 0 0 0.0 0
319 1 3.5 -4.5 0.0 0 0.01 0.0 0 0 0 0.0 0
320 1 3.0 -5.0 0.5 0 0.01 0.0 0 0 0 0.0 0
321 1 3.0 -4.0 -0.5 0 0.01 0.0 0 0 0 0.0 0
322 1 3.5 -3.5 0.0 0 0.01 0.0 0 0 0 0.0 0
323 1 3.0 -4.0 0.5 0 0.01 0.0 0 0 0 0.0 0
324 1 3.0 -3.0 -0.5 0 0.01 0.0 0 0 0 0.0 0
325 1 3.5 -2.5 0.0 0 0.01 0.0 0 0 0 0.0 0
326 1 3.0 -3.0 0.5 0 0.01 0.0 0 0 0 0.0 0
327 1 3.0 3.0 -0.5 0 0.01 0.0 0 0 0 0.0 0
328 1 3.5 3.5 0.0 0 0.01 0.0 0 0 0 0.0 0
329 1 3.0 3.0 0.5 0 0.01 0.0 0 0 0 0.0 0
330 1 3.0 4.0 -0.5 0 0.01 0.0 0 0 0 0.0 0
331 1 3.5 4.5 0.0 0 0.01 0.0 0 0 0 0.0 0
332 1 3.0 4.0 0.5 0 0.01 0.0 0 0 0 0.0 0
333 1 3.0 5.0 -0.5 0 0.01 0.0 0 0 0 0.0 0
334 1 3.5 5.5 0.0 0 0.01 0.0 0 0 0 0.0 0
335 1 3.0 5.0 0.5 0 0.01 0.0 0 0 0 0.0 0
336 1 3.0 6.0 -0.5 0 0.01 0.0 0 0 0 0.0 0
337 1 3.5 6.5 0.0 0 0.01 0.0 0 0 0 0.0 0
338 1 3.0 6.0 0.5 0 0.01 0.0 0 0 0 0.0 0
339 1 3.0 7.0 -0.5 0 0.01 0.0 0 0 0 0.0 0
340 1 3.5 7.5 0.0 0 0.01 0.0 0 0 0 0.0 0
341 1 3.0 7.0 0.5 0 0.01 0.0 0 0 0 0.0 0
342 1 3.0 8.0 -0.5 0 0.01 0.0 0 0 0 0.0 0
343 1 3.0 8.0 0.5 0 0.01 0.0 0 0 0 0.0 0
344 1 4.0 -6.0 -0.5 0 0.01 0.0 0 0 0 0.0 0
345 1 4.5 -5.5 0.0 0 0.01 0.0 0 0 0 0.0 0
346 1 4.0 -6.0 0.5 0 0.01 0.0 0 0 0 0.0 0
347 1 4.0 -5.0 -0.5 0 0.01 0.0 0 0 0 0.0 0
348 1 4.5 -4.5 0.0 0 0.01 0.0 0 0 0 0.0 0
349 1 4.0 -5.0 0.5 0 0.01 0.0 0 0 0 0.0 0
350 1 4.0 -4.0 -0.5 0 0.01 0.0 0 0 0 0.0 0
351 1 4.5 -3.5 0.0 0 0.01 0.0 0 0 0 0.0 0
352 1 4.0 -4.0 0.5 0 0.01 0.0 0 0 0 0.0 0
353 1 4.0 -3.0 -0.5 0 0.01 0.0 0 0 0 0.0 0
354 1 4.5 -2.5 0.0 0 0.01 0.0 0 0 0 0.0 0
355 1 4.0 -3.0 0.5 0 0.01 0.0 0 0 0 0.0 0
356 1 4.0 -2.0 -0.5 0 0.01 0.0 0 0 0 0.0 0
357 1 4.5 -1.5 0.0 0 0.01 0.0 0 0 0 0.0 0
358 1 4.0 -2.0 0.5 0 0.01 0.0 0 0 0 0.0 0
359 1 4.0 -1.0 -0.5 0 0.01 0.0 0 0 0 0.0 0
360 1 4.5 -0.5 0.0 0 0.01 0.0 0 0 0 0.0 0
361 1 4.0 -1.0 0.5 0 0.01 0.0 0 0 0 0.0 0
362 1 4.0 0.0 -0.5 0 0.01 0.0 0 0 0 0.0 0
363 1 4.5 0.5 0.0 0 0.01 0.0 0 0 0 0.0 0
364 1 4.0 0.0 0.5 0 0.01 0.0 0 0 0 0.0 0
365 1 4.0 1.0 -0.5 0 0.01 0.0 0 0 0 0.0 0
366 1 4.5 1.5 0.0 0 0.01 0.0 0 0 0 0.0 0
367 1 4.0 1.0 0.5 0 0.01 0.0 0 0 0 0.0 0
368 1 4.0 2.0 -0.5 0 0.01 0.0 0 0 0 0.0 0
369 1 4.5 2.5 0.0 0 0.01 0.0 0 0 0 0.0 0
370 1 4.0 2.0 0.5 0 0.01 0.0 0 0 0 0.0 0
371 1 4.0 3.0 -0.5 0 0.01 0.0 0 0 0 0.0 0
372 1 4.5 3.5 0.0 0 0.01 0.0 0 0 0 0.0 0
373 1 4.0 3.0 0.5 0 0.01 0.0 0 0 0 0.0 0
374 1 4.0 4.0 -0.5 0 0.01 0.0 0 0 0 0.0 0
375 1 4.5 4.5 0.0 0 0.01 0.0 0 0 0 0.0 0
376 1 4.0 4.0 0.5 0 0.01 0.0 0 0 0 0.0 0
377 1 4.0 5.0 -0.5 0 0.01 0.0 0 0 0 0.0 0
378 1 4.5 5.5 0.0 0 0.01 0.0 0 0 0 0.0 0
379 1 4.0 5.0 0.5 0 0.01 0.0 0 0 0 0.0 0
380 1 4.0 6.0 -0.5 0 0.01 0.0 0 0 0 0.0 0
381 1 4.5 6.5 0.0 0 0.01 0.0 0 0 0 0.0 0
382 1 4.0 6.0 0.5 0 0.01 0.0 0 0 0 0.0 0
383 1 4.0 7.0 -0.5 0 0.01 0.0 0 0 0 0.0 0
384 1 4.0 7.0 0.5 0 0.01 0.0 0 0 0 0.0 0
385 1 5.5 -5.5 0.0 0 0.01 0.0 0 0 0 0.0 0
386 1 5.0 -5.0 -0.5 0 0.01 0.0 0 0 0 0.0 0
387 1 5.5 -4.5 0.0 0 0.01 0.0 0 0 0 0.0 0
388 1 5.0 -5.0 0.5 0 0.01 0.0 0 0 0 0.0 0
389 1 5.0 -4.0 -0.5 0 0.01 0.0 0 0 0 0.0 0
390 1 5.5 -3.5 0.0 0 0.01 0.0 0 0 0 0.0 0
391 1 5.0 -4.0 0.5 0 0.01 0.0 0 0 0 0.0 0
392 1 5.0 -3.0 -0.5 0 0.01 0.0 0 0 0 0.0 0
393 1 5.5 -2.5 0.0 0 0.01 0.0 0 0 0 0.0 0
394 1 5.0 -3.0 0.5 0 0.01 0.0 0 0 0 0.0 0
395 1 5.0 -2.0 -0.5 0 0.01 0.0 0 0 0 0.0 0
396 1 5.5 -1.5 0.0 0 0.01 0.0 0 0 0 0.0 0
397 1 5.0 -2.0 0.5 0 0.01 0.0 0 0 0 0.0 0
398 1 5.0 -1.0 -0.5 0 0.01 0.0 0 0 0 0.0 0
399 1 5.5 -0.5 0.0 0 0.01 0.0 0 0 0 0.0 0
400 1 5.0 -1.0 0.5 0 0.01 0.0 0 0 0 0.0 0
401 1 5.0 0.0 -0.5 0 0.01 0.0 0 0 0 0.0 0
402 1 5.5 0.5 0.0 0 0.01 0.0 0 0 0 0.0 0
403 1 5.0 0.0 0.5 0 0.01 0.0 0 0 0 0.0 0
404 1 5.0 1.0 -0.5 0 0.01 0.0 0 0 0 0.0 0
405 1 5.5 1.5 0.0 0 0.01 0.0 0 0 0 0.0 0
406 1 5.0 1.0 0.5 0 0.01 0.0 0 0 0 0.0 0
407 1 5.0 2.0 -0.5 0 0.01 0.0 0 0 0 0.0 0
408 1 5.5 2.5 0.0 0 0.01 0.0 0 0 0 0.0 0
409 1 5.0 2.0 0.5 0 0.01 0.0 0 0 0 0.0 0
410 1 5.0 3.0 -0.5 0 0.01 0.0 0 0 0 0.0 0
411 1 5.5 3.5 0.0 0 0.01 0.0 0 0 0 0.0 0
412 1 5.0 3.0 0.5 0 0.01 0.0 0 0 0 0.0 0
413 1 5.0 4.0 -0.5 0 0.01 0.0 0 0 0 0.0 0
414 1 5.5 4.5 0.0 0 0.01 0.0 0 0 0 0.0 0
415 1 5.0 4.0 0.5 0 0.01 0.0 0 0 0 0.0 0
416 1 5.0 5.0 -0.5 0 0.01 0.0 0 0 0 0.0 0
417 1 5.5 5.5 0.0 0 0.01 0.0 0 0 0 0.0 0
418 1 5.0 5.0 0.5 0 0.01 0.0 0 0 0 0.0 0
419 1 5.0 6.0 -0.5 0 0.01 0.0 0 0 0 0.0 0
420 1 5.0 6.0 0.5 0 0.01 0.0 0 0 0 0.0 0
421 1 6.0 -5.0 -0.5 0 0.01 0.0 0 0 0 0.0 0
422 1 6.5 -4.5 0.0 0 0.01 0.0 0 0 0 0.0 0
423 1 6.0 -5.0 0.5 0 0.01 0.0 0 0 0 0.0 0
424 1 6.0 -4.0 -0.5 0 0.01 0.0 0 0 0 0.0 0
425 1 6.5 -3.5 0.0 0 0.01 0.0 0 0 0 0.0 0
426 1 6.0 -4.0 0.5 0 0.01 0.0 0 0 0 0.0 0
427 1 6.0 -3.0 -0.5 0 0.01 0.0 0 0 0 0.0 0
428 1 6.5 -2.5 0.0 0 0.01 0.0 0 0 0 0.0 0
429 1 6.0 -3.0 0.5 0 0.01 0.0 0 0 0 0.0 0
430 1 6.0 -2.0 -0.5 0 0.01 0.0 0 0 0 0.0 0
431 1 6.5 -1.5 0.0 0 0.01 0.0 0 0 0 0.0 0
432 1 6.0 -2.0 0.5 0 0.01 0.0 0 0 0 0.0 0
433 1 6.0 -1.0 -0.5 0 0.01 0.0 0 0 0 0.0 0
434 1 6.5 -0.5 0.0 0 0.01 0.0 0 0 0 0.0 0
435 1 6.0 -1.0 0.5 0 0.01 0.0 0 0 0 0.0 0
436 1 6.0 0.0 -0.5 0 0.01 0.0 0 0 0 0.0 0
437 1 6.0 0.0 0.5 0 0.01 0.0 0 0 0 0.0 0
438 1 6.0 1.0 -0.5 0 0.01 0.0 0 0 0 0.0 0
439 1 6.0 1.0 0.5 0 0.01 0.0 0 0 0 0.0 0
440 1 6.0 2.0 -0.5 0 0.01 0.0 0 0 0 0.0 0
441 1 6.0 2.0 0.5 0 0.01 0.0 0 0 0 0.0 0
442 1 6.0 3.0 -0.5 0 0.01 0.0 0 0 0 0.0 0
443 1 6.0 3.0 0.5 0 0.01 0.0 0 0 0 0.0 0
444 1 6.0 4.0 -0.5 0 0.01 0.0 0 0 0 0.0 0
445 1 6.0 4.0 0.5 0 0.01 0.0 0 0 0 0.0 0
446 1 7.0 -4.0 -0.5 0 0.01 0.0 0 0 0 0.0 0
447 1 7.5 -3.5 0.0 0 0.01 0.0 0 0 0 0.0 0
448 1 7.0 -4.0 0.5 0 0.01 0.0 0 0 0 0.0 0
449 1 7.0 -3.0 -0.5 0 0.01 0.0 0 0 0 0.0 0
450 1 7.5 -2.5 0.0 0 0.01 0.0 0 0 0 0.0 0
451 1 7.0 -3.0 0.5 0 0.01 0.0 0 0 0 0.0 0
452 1 7.0 -2.0 -0.5 0 0.01 0.0 0 0 0 0.0 0
453 1 7.5 -1.5 0.0 0 0.01 0.0 0 0 0 0.0 0
454 1 7.0 -2.0 0.5 0 0.01 0.0 0 0 0 0.0 0
455 1 7.0 -1.0 -0.5 0 0.01 0.0 0 0 0 0.0 0
456 1 7.5 -0.5 0.0 0 0.01 0.0 0 0 0 0.0 0
457 1 7.0 -1.0 0.5 0 0.01 0.0 0 0 0 0.0 0
458 1 8.0 -3.0 -0.5 0 0.01 0.0 0 0 0 0.0 0
459 1 8.5 -2.5 0.0 0 0.01 0.0 0 0 0 0.0 0
460 1 8.0 -3.0 0.5 0 0.01 0.0 0 0 0 0.0 0
461 1 8.0 -2.0 -0.5 0 0.01 0.0 0 0 0 0.0 0
462 1 8.5 -1.5 0.0 0 0.01 0.0 0 0 0 0.0 0
463 1 8.0 -2.0 0.5 0 0.01 0.0 0 0 0 0.0 0
464 1 8.0 -1.0 -0.5 0 0.01 0.0 0 0 0 0.0 0
465 1 8.5 -0.5 0.0 0 0.01 0.0 0 0 0 0.0 0
466 1 8.0 -1.0 0.5 0 0.01 0.0 0 0 0 0.0 0
467 1 9.0 -2.0 -0.5 0 0.01 0.0 0 0 0 0.0 0
468 1 9.0 -2.0 0.5 0 0.01 0.0 0 0 0 0.0 0
469 1 9.0 -1.0 -0.5 0 0.01 0.0 0 0 0 0.0 0
470 1 9.5 -0.5 0.0 0 0.01 0.0 0 0 0 0.0 0
471 1 9.0 -1.0 0.5 0 0.01 0.0 0 0 0 0.0 0

Bonds

1 2 267 269
2 1 30 33
3 2 41 42
4 1 59 96
5 2 344 345
6 2 41 78
7 2 42 43
8 1 222 239
9 2 322 326
10 2 74 75
11 1 413 444
12 1 333 335
13 1 45 48
14 2 377 378
15 2 95 134
16 2 354 394
17 2 107 108
18 2 414 445
19 2 366 368
20 2 337 341
21 2 144 175
22 2 410 411
23 1 97 100
24 1 19 31
25 1 159 191
26 2 399 401
27 2 77 121
28 1 110 155
29 1 130 133
30 2 141 142
31 2 273 298
32 1 444 445
33 1 163 166
34 2 114 161
35 2 174 175
36 1 433 435
37 1 295 321
38 2 207 208
39 2 450 460
40 1 29 58
41 1 229 232
42 2 208 209
43 2 240 241
44 2 273 275
45 1 211 214
46 1 310 342
47 2 302 338
48 2 241 242
49 1 244 247
50 1 4 6
51 1 339 341
52 1 37 39
53 2 8 12
54 1 328 331
55 2 360 400
56 2 307 308
57 1 7 16
58 1 409 441
59 1 329 332
60 2 428 454
61 2 114 115
62 2 340 341
63 2 372 410
64 2 80 122
65 2 11 22
66 1 151 182
67 2 92 96
68 1 91 131
69 1 191 218
70 2 83 127
71 1 103 105
72 2 402 438
73 2 74 78
74 1 361 400
75 1 362 365
76 2 147 148
77 1 92 132
78 2 104 106
79 2 95 137
80 1 268 294
81 1 395 398
82 1 439 441
83 2 117 161
84 1 137 139
85 2 109 157
86 2 181 182
87 1 428 431
88 1 440 442
89 2 250 281
90 1 170 172
91 2 290 317
92 2 214 215
93 2 465 471
94 2 203 205
95 2 247 248
96 2 305 338
97 1 10 12
98 2 316 347
99 2 308 343
100 2 43 45
101 1 269 271
102 1 302 305
103 1 313 314
104 1 32 35
105 2 11 12
106 2 43 81
107 1 335 338
108 1 61 98
109 1 33 36
110 1 65 68
111 2 17 28
112 1 224 241
113 1 368 371
114 2 347 348
115 2 86 127
116 1 66 69
117 2 77 78
118 2 337 383
119 1 110 112
120 2 357 361
121 1 336 338
122 1 368 407
123 2 408 443
124 1 369 372
125 2 360 403
126 1 401 404
127 2 380 381
128 2 98 137
129 1 99 102
130 2 378 420
131 2 357 397
132 1 143 145
133 2 114 118
134 1 402 405
135 2 434 437
136 2 413 414
137 1 112 157
138 1 132 135
139 2 264 291
140 2 256 287
141 2 464 465
142 1 176 178
143 1 235 264
144 1 113 158
145 2 446 447
146 2 253 281
147 1 165 168
148 2 177 179
149 2 209 211
150 1 468 471
151 1 319 348
152 1 31 60
153 2 311 343
154 2 290 320
155 2 264 268
156 1 243 245
157 1 275 277
158 2 453 463
159 2 17 18
160 2 276 278
161 2 308 310
162 2 305 341
163 1 265 268
164 1 230 247
165 1 341 343
166 1 68 105
167 2 72 75
168 2 51 52
169 1 231 248
170 2 83 84
171 2 331 335
172 2 61 65
173 1 13 25
174 1 105 108
175 2 411 443
176 2 116 117
177 2 363 403
178 2 375 377
179 2 182 211
180 2 153 184
181 1 73 75
182 1 138 141
183 2 17 31
184 2 117 118
185 2 104 148
186 2 408 410
187 1 94 134
188 1 194 221
189 2 86 130
190 2 168 169
191 2 259 287
192 1 139 142
193 1 171 174
194 1 270 296
195 1 441 443
196 1 260 288
197 1 172 175
198 1 271 297
199 1 442 444
200 2 26 57
201 2 293 321
202 2 296 326
203 2 456 464
204 2 194 198
205 1 38 67
206 1 238 241
207 2 249 250
208 1 239 242
209 2 282 283
210 1 41 77
211 1 13 15
212 1 45 47
213 1 272 275
214 1 304 307
215 2 315 316
216 1 2 5
217 2 35 39
218 2 414 444
219 2 46 48
220 2 52 91
221 1 305 308
222 1 337 340
223 2 8 21
224 1 355 394
225 2 215 234
226 2 227 245
227 2 159 190
228 1 79 81
229 1 338 341
230 1 370 373
231 2 89 131
232 1 336 380
233 2 328 376
234 1 100 140
235 2 20 31
236 2 348 391
237 1 200 227
238 1 407 440
239 2 101 105
240 2 399 436
241 1 371 374
242 1 403 406
243 2 114 160
244 2 433 434
245 1 404 407
246 1 255 284
247 2 247 280
248 1 178 180
249 1 237 266
250 1 115 160
251 2 267 294
252 2 200 204
253 1 211 213
254 1 451 460
255 2 462 469
256 1 321 350
257 2 212 214
258 1 452 461
259 2 244 246
260 2 256 257
261 1 322 351
262 2 325 356
263 2 289 290
264 1 8 11
265 2 267 271
266 2 19 20
267 2 299 303
268 1 278 280
269 1 69 106
270 1 9 12
271 2 41 44
272 2 311 313
273 1 344 347
274 2 11 21
275 1 70 107
276 2 151 181
277 1 42 45
278 1 154 186
279 1 74 77
280 1 173 199
281 2 402 437
282 1 206 233
283 2 92 131
284 1 377 380
285 2 104 105
286 2 95 136
287 1 15 27
288 1 155 187
289 1 75 78
290 1 174 200
291 2 86 87
292 2 366 370
293 1 410 413
294 2 137 138
295 1 140 143
296 2 119 120
297 1 440 441
298 2 399 403
299 2 170 171
300 1 121 166
301 1 141 144
302 1 173 176
303 2 273 300
304 2 152 153
305 2 185 187
306 1 465 470
307 1 291 317
308 2 203 204
309 2 114 163
310 1 174 177
311 2 218 220
312 1 25 54
313 2 207 210
314 2 29 60
315 2 273 277
316 1 43 80
317 2 26 27
318 1 40 74
319 2 285 287
320 1 274 277
321 1 318 320
322 1 48 50
323 2 336 337
324 2 369 371
325 1 180 206
326 1 307 310
327 1 87 127
328 2 372 376
329 2 351 353
330 1 357 396
331 1 22 34
332 2 369 407
333 2 402 404
334 1 114 117
335 2 340 343
336 2 372 412
337 2 80 124
338 2 405 409
339 2 11 24
340 2 151 184
341 2 191 220
342 1 102 142
343 2 162 193
344 2 235 263
345 2 147 150
346 1 435 437
347 2 417 419
348 2 104 108
349 2 177 178
350 2 450 452
351 2 117 163
352 1 257 286
353 1 181 184
354 1 280 306
355 1 461 467
356 1 258 287
357 2 250 283
358 2 243 244
359 1 214 217
360 1 453 462
361 2 32 60
362 1 312 343
363 2 276 277
364 1 454 463
365 1 247 250
366 1 324 353
367 2 316 349
368 1 280 283
369 2 7 8
370 2 431 452
371 2 43 47
372 1 22 24
373 2 310 311
374 1 342 343
375 1 40 41
376 1 220 237
377 2 72 110
378 1 363 402
379 2 55 57
380 2 61 100
381 1 346 349
382 2 14 25
383 2 73 74
384 2 393 430
385 1 106 108
386 1 412 443
387 1 44 47
388 2 17 30
389 1 76 116
390 1 364 403
391 2 396 435
392 1 88 90
393 1 386 421
394 2 194 220
395 1 379 382
396 1 157 189
397 1 77 80
398 2 98 139
399 1 442 443
400 1 413 416
401 1 446 449
402 2 253 283
403 2 38 66
404 2 209 213
405 1 27 56
406 2 319 350
407 1 28 57
408 2 13 14
409 1 272 274
410 2 2 4
411 2 14 15
412 1 45 82
413 2 46 47
414 1 17 20
415 2 305 307
416 2 276 280
417 2 308 312
418 2 67 106
419 1 46 83
420 1 227 244
421 2 79 80
422 1 50 53
423 2 230 249
424 2 80 81
425 2 171 199
426 1 83 86
427 1 371 373
428 2 101 140
429 1 353 355
430 2 113 114
431 1 24 36
432 1 164 196
433 2 411 445
434 1 116 119
435 1 404 406
436 2 375 379
437 2 182 213
438 1 386 388
439 2 153 186
440 2 146 147
441 1 437 439
442 2 408 412
443 2 194 223
444 1 267 293
445 1 179 180
446 2 238 266
447 1 438 440
448 1 201 204
449 2 212 213
450 1 183 186
451 2 322 350
452 1 34 63
453 2 26 59
454 1 234 237
455 2 293 323
456 2 325 355
457 1 216 219
458 2 456 466
459 1 35 64
460 1 267 270
461 2 38 69
462 2 246 247
463 2 278 279
464 1 249 252
465 2 279 280
466 2 311 312
467 1 282 285
468 2 41 79
469 1 42 44
470 2 5 13
471 1 315 318
472 2 2 7
473 2 174 199
474 2 46 50
475 1 365 404
476 2 345 346
477 2 52 93
478 1 57 59
479 2 144 176
480 1 96 136
481 2 156 187
482 1 196 223
483 2 215 236
484 2 159 192
485 1 366 405
486 1 367 370
487 2 378 379
488 1 97 137
489 2 89 133
490 2 141 143
491 2 200 229
492 1 273 299
493 1 400 403
494 2 185 186
495 2 411 412
496 2 174 176
497 1 433 436
498 1 111 156
499 2 29 59
500 1 208 210
501 2 252 253
502 2 462 471
503 2 244 248
504 2 285 286
505 1 256 259
506 1 4 7
507 2 322 353
508 2 325 358
509 2 318 319
510 1 289 292
511 2 16 17
512 2 48 49
513 1 19 22
514 1 307 309
515 2 319 320
516 1 66 103
517 2 351 352
518 2 58 99
519 1 48 85
520 2 49 50
521 1 229 246
522 2 221 242
523 2 340 342
524 1 372 411
525 1 373 376
526 2 151 183
527 2 82 83
528 2 402 439
529 1 373 412
530 1 406 409
531 2 385 386
532 2 92 133
533 2 417 418
534 1 104 107
535 2 203 229
536 1 166 198
537 1 374 376
538 1 117 162
539 2 450 451
540 1 137 140
541 1 181 183
542 1 407 409
543 1 118 163
544 1 170 173
545 1 269 295
546 1 214 216
547 1 152 155
548 2 185 189
549 2 203 206
550 2 182 183
551 2 247 249
552 2 218 222
553 1 36 65
554 1 236 239
555 2 215 216
556 1 37 66
557 2 29 62
558 2 22 23
559 1 281 283
560 2 43 82
561 2 55 56
562 1 26 29
563 2 40 76
564 1 176 202
565 1 303 306
566 2 88 89
567 1 327 371
568 1 347 349
569 1 18 30
570 2 77 79
571 1 177 203
572 1 110 113
573 2 89 90
574 1 336 339
575 2 369 373
576 2 387 421
577 1 380 382
578 1 98 138
579 1 198 225
580 2 357 398
581 2 122 123
582 2 402 406
583 2 381 383
584 1 413 415
585 1 99 139
586 2 132 136
587 2 151 186
588 2 191 222
589 2 111 113
590 2 235 265
591 2 155 156
592 1 275 301
593 2 414 416
594 1 446 448
595 2 144 146
596 2 177 180
597 1 276 302
598 2 188 189
599 2 447 449
600 2 450 454
601 1 210 213
602 2 221 222
603 1 243 246
604 2 453 464
605 2 32 62
606 2 17 19
607 1 276 279
608 1 287 288
609 2 46 82
610 1 6 9
611 1 277 280
612 1 309 312
613 1 7 10
614 1 51 53
615 1 310 313
616 2 321 322
617 2 353 354
618 2 72 112
619 2 363 404
620 2 334 377
621 1 375 378
622 2 354 355
623 2 61 102
624 2 386 387
625 2 14 27
626 1 153 185
627 1 73 76
628 1 105 145
629 2 393 432
630 1 205 232
631 1 232 249
632 2 117 119
633 1 375 414
634 1 376 379
635 1 408 411
636 2 387 388
637 2 194 222
638 1 438 439
639 1 409 412
640 1 119 164
641 1 151 153
642 1 242 271
643 2 282 307
644 1 120 165
645 2 453 454
646 1 184 186
647 1 464 469
648 1 456 465
649 2 35 63
650 1 326 355
651 2 38 68
652 2 238 242
653 1 217 219
654 1 249 251
655 2 319 352
656 2 250 252
657 2 282 284
658 1 13 16
659 1 315 317
660 1 42 79
661 2 2 6
662 2 327 328
663 1 14 17
664 1 46 49
665 2 25 26
666 2 57 58
667 2 305 309
668 2 316 318
669 2 67 108
670 2 360 361
671 1 47 50
672 2 227 246
673 2 366 404
674 1 79 82
675 1 178 204
676 2 58 59
677 2 230 251
678 1 389 424
679 1 20 32
680 1 160 192
681 1 80 83
682 2 200 228
683 1 112 115
684 2 171 201
685 2 91 92
686 2 399 437
687 1 179 205
688 1 382 384
689 1 415 418
690 2 101 142
691 1 21 33
692 1 113 116
693 1 145 148
694 2 111 155
695 1 448 451
696 2 427 428
697 1 146 149
698 1 416 418
699 2 267 295
700 1 278 304
701 2 190 191
702 1 30 59
703 1 449 451
704 1 212 215
705 2 223 224
706 2 256 258
707 2 322 352
708 1 245 248
709 1 289 291
710 1 19 21
711 1 246 249
712 1 278 281
713 2 20 22
714 1 279 282
715 2 311 314
716 2 64 65
717 2 70 108
718 2 49 85
719 2 41 81
720 1 233 251
721 2 5 15
722 2 185 211
723 1 356 358
724 1 74 114
725 1 362 401
726 2 174 201
727 2 354 397
728 2 86 88
729 2 374 375
730 2 385 421
731 1 345 348
732 2 144 178
733 1 389 391
734 2 156 189
735 1 107 147
736 2 366 407
737 1 119 121
738 2 407 408
739 2 131 132
740 1 378 381
741 2 422 424
742 2 141 145
743 2 200 231