#LAMMPS data file for cubic lattice with middle particle bonds

471 atoms
2014 bonds
1 atom types
2 bond types
-27.0 27.0 xlo xhi
-27.0 27.0 ylo yhi
-2.0 2.0 zlo zhi

Masses

1 1.0

Bond Coeffs

1 0.1 1
2 0.1 0.8660254037844386

Atoms

1 1 -9.5 -0.5 0.0 0 0.01 0.0 0 0 0 0.0 0
2 1 -8.5 -2.5 0.0 0 0.01 0.0 0 0 0 0.0 0
3 1 -9.0 -2.0 -0.5 0 0.01 0.0 0 0 0 0.0 0
4 1 -8.5 -1.5 0.0 0 0.01 0.0 0 0 0 0.0 0
5 1 -9.0 -2.0 0.5 0 0.01 0.0 0 0 0 0.0 0
6 1 -9.0 -1.0 -0.5 0 0.01 0.0 0 0 0 0.0 0
7 1 -8.5 -0.5 0.0 0 0.01 0.0 0 0 0 0.0 0
8 1 -9.0 -1.0 0.5 0 0.01 0.0 0 0 0 0.0 0
9 1 -7.5 -3.5 0.0 0 0.01 0.0 0 0 0 0.0 0
10 1 -8.0 -3.0 -0.5 0 0.01 0.0 0 0 0 0.0 0
11 1 -7.5 -2.5 0.0 0 0.01 0.0 0 0 0 0.0 0
12 1 -8.0 -3.0 0.5 0 0.01 0.0 0 0 0 0.0 0
13 1 -8.0 -2.0 -0.5 0 0.01 0.0 0 0 0 0.0 0
14 1 -7.5 -1.5 0.0 0 0.01 0.0 0 0 0 0.0 0
15 1 -8.0 -2.0 0.5 0 0.01 0.0 0 0 0 0.0 0
16 1 -8.0 -1.0 -0.5 0 0.01 0.0 0 0 0 0.0 0
17 1 -7.5 -0.5 0.0 0 0.01 0.0 0 0 0 0.0 0
18 1 -8.0 -1.0 0.5 0 0.01 0.0 0 0 0 0.0 0
19 1 -6.5 -4.5 0.0 0 0.01 0.0 0 0 0 0.0 0
20 1 -7.0 -4.0 -0.5 0 0.01 0.0 0 0 0 0.0 0
21 1 -6.5 -3.5 0.0 0 0.01 0.0 0 0 0 0.0 0
22 1 -7.0 -4.0 0.5 0 0.01 0.0 0 0 0 0.0 0
23 1 -7.0 -3.0 -0.5 0 0.01 0.0 0 0 0 0.0 0
24 1 -6.5 -2.5 0.0 0 0.01 0.0 0 0 0 0.0 0
25 1 -7.0 -3.0 0.5 0 0.01 0.0 0 0 0 0.0 0
26 1 -7.0 -2.0 -0.5 0 0.01 0.0 0 0 0 0.0 0
27 1 -6.5 -1.5 0.0 0 0.01 0.0 0 0 0 0.0 0
28 1 -7.0 -2.0 0.5 0 0.01 0.0 0 0 0 0.0 0
29 1 -7.0 -1.0 -0.5 0 0.01 0.0 0 0 0 0.0 0
30 1 -6.5 -0.5 0.0 0 0.01 0.0 0 0 0 0.0 0
31 1 -7.0 -1.0 0.5 0 0.01 0.0 0 0 0 0.0 0
32 1 -5.5 -5.5 0.0 0 0.01 0.0 0 0 0 0.0 0
33 1 -6.0 -5.0 -0.5 0 0.01 0.0 0 0 0 0.0 0
34 1 -5.5 -4.5 0.0 0 0.01 0.0 0 0 0 0.0 0
35 1 -6.0 -5.0 0.5 0 0.01 0.0 0 0 0 0.0 0
36 1 -6.0 -4.0 -0.5 0 0.01 0.0 0 0 0 0.0 0
37 1 -5.5 -3.5 0.0 0 0.01 0.0 0 0 0 0.0 0
38 1 -6.0 -4.0 0.5 0 0.01 0.0 0 0 0 0.0 0
39 1 -6.0 -3.0 -0.5 0 0.01 0.0 0 0 0 0.0 0
40 1 -5.5 -2.5 0.0 0 0.01 0.0 0 0 0 0.0 0
41 1 -6.0 -3.0 0.5 0 0.01 0.0 0 0 0 0.0 0
42 1 -6.0 -2.0 -0.5 0 0.01 0.0 0 0 0 0.0 0
43 1 -5.5 -1.5 0.0 0 0.01 0.0 0 0 0 0.0 0
44 1 -6.0 -2.0 0.5 0 0.01 0.0 0 0 0 0.0 0
45 1 -6.0 -1.0 -0.5 0 0.01 0.0 0 0 0 0.0 0
46 1 -5.5 -0.5 0.0 0 0.01 0.0 0 0 0 0.0 0
47 1 -6.0 -1.0 0.5 0 0.01 0.0 0 0 0 0.0 0
48 1 -6.0 0.0 -0.5 0 0.01 0.0 0 0 0 0.0 0
49 1 -5.5 0.5 0.0 0 0.01 0.0 0 0 0 0.0 0
50 1 -6.0 0.0 0.5 0 0.01 0.0 0 0 0 0.0 0
51 1 -6.0 1.0 -0.5 0 0.01 0.0 0 0 0 0.0 0
52 1 -5.5 1.5 0.0 0 0.01 0.0 0 0 0 0.0 0
53 1 -6.0 1.0 0.5 0 0.01 0.0 0 0 0 0.0 0
54 1 -6.0 2.0 -0.5 0 0.01 0.0 0 0 0 0.0 0
55 1 -5.5 2.5 0.0 0 0.01 0.0 0 0 0 0.0 0
56 1 -6.0 2.0 0.5 0 0.01 0.0 0 0 0 0.0 0
57 1 -6.0 3.0 -0.5 0 0.01 0.0 0 0 0 0.0 0
58 1 -5.5 3.5 0.0 0 0.01 0.0 0 0 0 0.0 0
59 1 -6.0 3.0 0.5 0 0.01 0.0 0 0 0 0.0 0
60 1 -6.0 4.0 -0.5 0 0.01 0.0 0 0 0 0.0 0
61 1 -5.5 4.5 0.0 0 0.01 0.0 0 0 0 0.0 0
62 1 -6.0 4.0 0.5 0 0.01 0.0 0 0 0 0.0 0
63 1 -5.5 5.5 0.0 0 0.01 0.0 0 0 0 0.0 0
64 1 -4.5 -5.5 0.0 0 0.01 0.0 0 0 0 0.0 0
65 1 -5.0 -5.0 -0.5 0 0.01 0.0 0 0 0 0.0 0
66 1 -4.5 -4.5 0.0 0 0.01 0.0 0 0 0 0.0 0
67 1 -5.0 -5.0 0.5 0 0.01 0.0 0 0 0 0.0 0
68 1 -5.0 -4.0 -0.5 0 0.01 0.0 0 0 0 0.0 0
69 1 -4.5 -3.5 0.0 0 0.01 0.0 0 0 0 0.0 0
70 1 -5.0 -4.0 0.5 0 0.01 0.0 0 0 0 0.0 0
71 1 -5.0 -3.0 -0.5 0 0.01 0.0 0 0 0 0.0 0
72 1 -4.5 -2.5 0.0 0 0.01 0.0 0 0 0 0.0 0
73 1 -5.0 -3.0 0.5 0 0.01 0.0 0 0 0 0.0 0
74 1 -5.0 -2.0 -0.5 0 0.01 0.0 0 0 0 0.0 0
75 1 -4.5 -1.5 0.0 0 0.01 0.0 0 0 0 0.0 0
76 1 -5.0 -2.0 0.5 0 0.01 0.0 0 0 0 0.0 0
77 1 -5.0 -1.0 -0.5 0 0.01 0.0 0 0 0 0.0 0
78 1 -4.5 -0.5 0.0 0 0.01 0.0 0 0 0 0.0 0
79 1 -5.0 -1.0 0.5 0 0.01 0.0 0 0 0 0.0 0
80 1 -5.0 0.0 -0.5 0 0.01 0.0 0 0 0 0.0 0
81 1 -4.5 0.5 0.0 0 0.01 0.0 0 0 0 0.0 0
82 1 -5.0 0.0 0.5 0 0.01 0.0 0 0 0 0.0 0
83 1 -5.0 1.0 -0.5 0 0.01 0.0 0 0 0 0.0 0
84 1 -4.5 1.5 0.0 0 0.01 0.0 0 0 0 0.0 0
85 1 -5.0 1.0 0.5 0 0.01 0.0 0 0 0 0.0 0
86 1 -5.0 2.0 -0.5 0 0.01 0.0 0 0 0 0.0 0
87 1 -4.5 2.5 0.0 0 0.01 0.0 0 0 0 0.0 0
88 1 -5.0 2.0 0.5 0 0.01 0.0 0 0 0 0.0 0
89 1 -5.0 3.0 -0.5 0 0.01 0.0 0 0 0 0.0 0
90 1 -4.5 3.5 0.0 0 0.01 0.0 0 0 0 0.0 0
91 1 -5.0 3.0 0.5 0 0.01 0.0 0 0 0 0.0 0
92 1 -5.0 4.0 -0.5 0 0.01 0.0 0 0 0 0.0 0
93 1 -4.5 4.5 0.0 0 0.01 0.0 0 0 0 0.0 0
94 1 -5.0 4.0 0.5 0 0.01 0.0 0 0 0 0.0 0
95 1 -5.0 5.0 -0.5 0 0.01 0.0 0 0 0 0.0 0
96 1 -4.5 5.5 0.0 0 0.01 0.0 0 0 0 0.0 0
97 1 -5.0 5.0 0.5 0 0.01 0.0 0 0 0 0.0 0
98 1 -5.0 6.0 -0.5 0 0.01 0.0 0 0 0 0.0 0
99 1 -4.5 6.5 0.0 0 0.01 0.0 0 0 0 0.0 0
100 1 -5.0 6.0 0.5 0 0.01 0.0 0 0 0 0.0 0
101 1 -4.0 -6.0 -0.5 0 0.01 0.0 0 0 0 0.0 0
102 1 -3.5 -5.5 0.0 0 0.01 0.0 0 0 0 0.0 0
103 1 -4.0 -6.0 0.5 0 0.01 0.0 0 0 0 0.0 0
104 1 -4.0 -5.0 -0.5 0 0.01 0.0 0 0 0 0.0 0
105 1 -3.5 -4.5 0.0 0 0.01 0.0 0 0 0 0.0 0
106 1 -4.0 -5.0 0.5 0 0.01 0.0 0 0 0 0.0 0
107 1 -4.0 -4.0 -0.5 0 0.01 0.0 0 0 0 0.0 0
108 1 -3.5 -3.5 0.0 0 0.01 0.0 0 0 0 0.0 0
109 1 -4.0 -4.0 0.5 0 0.01 0.0 0 0 0 0.0 0
110 1 -4.0 -3.0 -0.5 0 0.01 0.0 0 0 0 0.0 0
111 1 -3.5 -2.5 0.0 0 0.01 0.0 0 0 0 0.0 0
112 1 -4.0 -3.0 0.5 0 0.01 0.0 0 0 0 0.0 0
113 1 -4.0 -2.0 -0.5 0 0.01 0.0 0 0 0 0.0 0
114 1 -3.5 -1.5 0.0 0 0.01 0.0 0 0 0 0.0 0
115 1 -4.0 -2.0 0.5 0 0.01 0.0 0 0 0 0.0 0
116 1 -4.0 -1.0 -0.5 0 0.01 0.0 0 0 0 0.0 0
117 1 -3.5 -0.5 0.0 0 0.01 0.0 0 0 0 0.0 0
118 1 -4.0 -1.0 0.5 0 0.01 0.0 0 0 0 0.0 0
119 1 -4.0 0.0 -0.5 0 0.01 0.0 0 0 0 0.0 0
120 1 -3.5 0.5 0.0 0 0.01 0.0 0 0 0 0.0 0
121 1 -4.0 0.0 0.5 0 0.01 0.0 0 0 0 0.0 0
122 1 -4.0 1.0 -0.5 0 0.01 0.0 0 0 0 0.0 0
123 1 -3.5 1.5 0.0 0 0.01 0.0 0 0 0 0.0 0
124 1 -4.0 1.0 0.5 0 0.01 0.0 0 0 0 0.0 0
125 1 -4.0 2.0 -0.5 0 0.01 0.0 0 0 0 0.0 0
126 1 -3.5 2.5 0.0 0 0.01 0.0 0 0 0 0.0 0
127 1 -4.0 2.0 0.5 0 0.01 0.0 0 0 0 0.0 0
128 1 -4.0 3.0 -0.5 0 0.01 0.0 0 0 0 0.0 0
129 1 -3.5 3.5 0.0 0 0.01 0.0 0 0 0 0.0 0
130 1 -4.0 3.0 0.5 0 0.01 0.0 0 0 0 0.0 0
131 1 -4.0 4.0 -0.5 0 0.01 0.0 0 0 0 0.0 0
132 1 -3.5 4.5 0.0 0 0.01 0.0 0 0 0 0.0 0
133 1 -4.0 4.0 0.5 0 0.01 0.0 0 0 0 0.0 0
134 1 -4.0 5.0 -0.5 0 0.01 0.0 0 0 0 0.0 0
135 1 -3.5 5.5 0.0 0 0.01 0.0 0 0 0 0.0 0
136 1 -4.0 5.0 0.5 0 0.01 0.0 0 0 0 0.0 0
137 1 -4.0 6.0 -0.5 0 0.01 0.0 0 0 0 0.0 0
138 1 -3.5 6.5 0.0 0 0.01 0.0 0 0 0 0.0 0
139 1 -4.0 6.0 0.5 0 0.01 0.0 0 0 0 0.0 0
140 1 -4.0 7.0 -0.5 0 0.01 0.0 0 0 0 0.0 0
141 1 -3.5 7.5 0.0 0 0.01 0.0 0 0 0 0.0 0
142 1 -4.0 7.0 0.5 0 0.01 0.0 0 0 0 0.0 0
143 1 -3.0 -6.0 -0.5 0 0.01 0.0 0 0 0 0.0 0
144 1 -2.5 -5.5 0.0 0 0.01 0.0 0 0 0 0.0 0
145 1 -3.0 -6.0 0.5 0 0.01 0.0 0 0 0 0.0 0
146 1 -3.0 -5.0 -0.5 0 0.01 0.0 0 0 0 0.0 0
147 1 -2.5 -4.5 0.0 0 0.01 0.0 0 0 0 0.0 0
148 1 -3.0 -5.0 0.5 0 0.01 0.0 0 0 0 0.0 0
149 1 -3.0 -4.0 -0.5 0 0.01 0.0 0 0 0 0.0 0
150 1 -2.5 -3.5 0.0 0 0.01 0.0 0 0 0 0.0 0
151 1 -3.0 -4.0 0.5 0 0.01 0.0 0 0 0 0.0 0
152 1 -3.0 -3.0 -0.5 0 0.01 0.0 0 0 0 0.0 0
153 1 -2.5 -2.5 0.0 0 0.01 0.0 0 0 0 0.0 0
154 1 -3.0 -3.0 0.5 0 0.01 0.0 0 0 0 0.0 0
155 1 -3.0 3.0 -0.5 0 0.01 0.0 0 0 0 0.0 0
156 1 -2.5 3.5 0.0 0 0.01 0.0 0 0 0 0.0 0
157 1 -3.0 3.0 0.5 0 0.01 0.0 0 0 0 0.0 0
158 1 -3.0 4.0 -0.5 0 0.01 0.0 0 0 0 0.0 0
159 1 -2.5 4.5 0.0 0 0.01 0.0 0 0 0 0.0 0
160 1 -3.0 4.0 0.5 0 0.01 0.0 0 0 0 0.0 0
161 1 -3.0 5.0 -0.5 0 0.01 0.0 0 0 0 0.0 0
162 1 -2.5 5.5 0.0 0 0.01 0.0 0 0 0 0.0 0
163 1 -3.0 5.0 0.5 0 0.01 0.0 0 0 0 0.0 0
164 1 -3.0 6.0 -0.5 0 0.01 0.0 0 0 0 0.0 0
165 1 -2.5 6.5 0.0 0 0.01 0.0 0 0 0 0.0 0
166 1 -3.0 6.0 0.5 0 0.01 0.0 0 0 0 0.0 0
167 1 -3.0 7.0 -0.5 0 0.01 0.0 0 0 0 0.0 0
168 1 -2.5 7.5 0.0 0 0.01 0.0 0 0 0 0.0 0
169 1 -3.0 7.0 0.5 0 0.01 0.0 0 0 0 0.0 0
170 1 -3.0 8.0 -0.5 0 0.01 0.0 0 0 0 0.0 0
171 1 -2.5 8.5 0.0 0 0.01 0.0 0 0 0 0.0 0
172 1 -3.0 8.0 0.5 0 0.01 0.0 0 0 0 0.0 0
173 1 -2.0 -6.0 -0.5 0 0.01 0.0 0 0 0 0.0 0
174 1 -1.5 -5.5 0.0 0 0.01 0.0 0 0 0 0.0 0
175 1 -2.0 -6.0 0.5 0 0.01 0.0 0 0 0 0.0 0
176 1 -2.0 -5.0 -0.5 0 0.01 0.0 0 0 0 0.0 0
177 1 -1.5 -4.5 0.0 0 0.01 0.0 0 0 0 0.0 0
178 1 -2.0 -5.0 0.5 0 0.01 0.0 0 0 0 0.0 0
179 1 -2.0 -4.0 -0.5 0 0.01 0.0 0 0 0 0.0 0
180 1 -1.5 -3.5 0.0 0 0.01 0.0 0 0 0 0.0 0
181 1 -2.0 -4.0 0.5 0 0.01 0.0 0 0 0 0.0 0
182 1 -2.0 4.0 -0.5 0 0.01 0.0 0 0 0 0.0 0
183 1 -1.5 4.5 0.0 0 0.01 0.0 0 0 0 0.0 0
184 1 -2.0 4.0 0.5 0 0.01 0.0 0 0 0 0.0 0
185 1 -2.0 5.0 -0.5 0 0.01 0.0 0 0 0 0.0 0
186 1 -1.5 5.5 0.0 0 0.01 0.0 0 0 0 0.0 0
187 1 -2.0 5.0 0.5 0 0.01 0.0 0 0 0 0.0 0
188 1 -2.0 6.0 -0.5 0 0.01 0.0 0 0 0 0.0 0
189 1 -1.5 6.5 0.0 0 0.01 0.0 0 0 0 0.0 0
190 1 -2.0 6.0 0.5 0 0.01 0.0 0 0 0 0.0 0
191 1 -2.0 7.0 -0.5 0 0.01 0.0 0 0 0 0.0 0
192 1 -1.5 7.5 0.0 0 0.01 0.0 0 0 0 0.0 0
193 1 -2.0 7.0 0.5 0 0.01 0.0 0 0 0 0.0 0
194 1 -2.0 8.0 -0.5 0 0.01 0.0 0 0 0 0.0 0
195 1 -1.5 8.5 0.0 0 0.01 0.0 0 0 0 0.0 0
196 1 -2.0 8.0 0.5 0 0.01 0.0 0 0 0 0.0 0
197 1 -2.0 9.0 -0.5 0 0.01 0.0 0 0 0 0.0 0
198 1 -2.0 9.0 0.5 0 0.01 0.0 0 0 0 0.0 0
199 1 -1.0 -6.0 -0.5 0 0.01 0.0 0 0 0 0.0 0
200 1 -0.5 -5.5 0.0 0 0.01 0.0 0 0 0 0.0 0
201 1 -1.0 -6.0 0.5 0 0.01 0.0 0 0 0 0.0 0
202 1 -1.0 -5.0 -0.5 0 0.01 0.0 0 0 0 0.0 0
203 1 -0.5 -4.5 0.0 0 0.01 0.0 0 0 0 0.0 0
204 1 -1.0 -5.0 0.5 0 0.01 0.0 0 0 0 0.0 0
205 1 -1.0 -4.0 -0.5 0 0.01 0.0 0 0 0 0.0 0
206 1 -0.5 -3.5 0.0 0 0.01 0.0 0 0 0 0.0 0
207 1 -1.0 -4.0 0.5 0 0.01 0.0 0 0 0 0.0 0
208 1 -1.0 4.0 -0.5 0 0.01 0.0 0 0 0 0.0 0
209 1 -0.5 4.5 0.0 0 0.01 0.0 0 0 0 0.0 0
210 1 -1.0 4.0 0.5 0 0.01 0.0 0 0 0 0.0 0
211 1 -1.0 5.0 -0.5 0 0.01 0.0 0 0 0 0.0 0
212 1 -0.5 5.5 0.0 0 0.01 0.0 0 0 0 0.0 0
213 1 -1.0 5.0 0.5 0 0.01 0.0 0 0 0 0.0 0
214 1 -1.0 6.0 -0.5 0 0.01 0.0 0 0 0 0.0 0
215 1 -0.5 6.5 0.0 0 0.01 0.0 0 0 0 0.0 0
216 1 -1.0 6.0 0.5 0 0.01 0.0 0 0 0 0.0 0
217 1 -1.0 7.0 -0.5 0 0.01 0.0 0 0 0 0.0 0
218 1 -0.5 7.5 0.0 0 0.01 0.0 0 0 0 0.0 0
219 1 -1.0 7.0 0.5 0 0.01 0.0 0 0 0 0.0 0
220 1 -1.0 8.0 -0.5 0 0.01 0.0 0 0 0 0.0 0
221 1 -0.5 8.5 0.0 0 0.01 0.0 0 0 0 0.0 0
222 1 -1.0 8.0 0.5 0 0.01 0.0 0 0 0 0.0 0
223 1 -1.0 9.0 -0.5 0 0.01 0.0 0 0 0 0.0 0
224 1 -0.5 9.5 0.0 0 0.01 0.0 0 0 0 0.0 0
225 1 -1.0 9.0 0.5 0 0.01 0.0 0 0 0 0.0 0
226 1 0.0 -10.0 -0.5 0 0.01 0.0 0 0 0 0.0 0
227 1 0.5 -9.5 0.0 0 0.01 0.0 0 0 0 0.0 0
228 1 0.0 -10.0 0.5 0 0.01 0.0 0 0 0 0.0 0
229 1 0.0 -9.0 -0.5 0 0.01 0.0 0 0 0 0.0 0
230 1 0.5 -8.5 0.0 0 0.01 0.0 0 0 0 0.0 0
231 1 0.0 -9.0 0.5 0 0.01 0.0 0 0 0 0.0 0
232 1 0.0 -8.0 -0.5 0 0.01 0.0 0 0 0 0.0 0
233 1 0.5 -7.5 0.0 0 0.01 0.0 0 0 0 0.0 0
234 1 0.0 -8.0 0.5 0 0.01 0.0 0 0 0 0.0 0
235 1 0.0 -7.0 -0.5 0 0.01 0.0 0 0 0 0.0 0
236 1 0.5 -6.5 0.0 0 0.01 0.0 0 0 0 0.0 0
237 1 0.0 -7.0 0.5 0 0.01 0.0 0 0 0 0.0 0
238 1 0.0 -6.0 -0.5 0 0.01 0.0 0 0 0 0.0 0
239 1 0.5 -5.5 0.0 0 0.01 0.0 0 0 0 0.0 0
240 1 0.0 -6.0 0.5 0 0.01 0.0 0 0 0 0.0 0
241 1 0.0 -5.0 -0.5 0 0.01 0.0 0 0 0 0.0 0
242 1 0.5 -4.5 0.0 0 0.01 0.0 0 0 0 0.0 0
243 1 0.0 -5.0 0.5 0 0.01 0.0 0 0 0 0.0 0
244 1 0.0 -4.0 -0.5 0 0.01 0.0 0 0 0 0.0 0
245 1 0.5 -3.5 0.0 0 0.01 0.0 0 0 0 0.0 0
246 1 0.0 -4.0 0.5 0 0.01 0.0 0 0 0 0.0 0
247 1 0.0 4.0 -0.5 0 0.01 0.0 0 0 0 0.0 0
248 1 0.5 4.5 0.0 0 0.01 0.0 0 0 0 0.0 0
249 1 0.0 4.0 0.5 0 0.01 0.0 0 0 0 0.0 0
250 1 0.0 5.0 -0.5 0 0.01 0.0 0 0 0 0.0 0
251 1 0.5 5.5 0.0 0 0.01 0.0 0 0 0 0.0 0
252 1 0.0 5.0 0.5 0 0.01 0.0 0 0 0 0.0 0
253 1 0.0 6.0 -0.5 0 0.01 0.0 0 0 0 0.0 0
254 1 0.0 6.0 0.5 0 0.01 0.0 0 0 0 0.0 0
255 1 1.0 -9.0 -0.5 0 0.01 0.0 0 0 0 0.0 0
256 1 1.5 -8.5 0.0 0 0.01 0.0 0 0 0 0.0 0
257 1 1.0 -9.0 0.5 0 0.01 0.0 0 0 0 0.0 0
258 1 1.0 -8.0 -0.5 0 0.01 0.0 0 0 0 0.0 0
259 1 1.5 -7.5 0.0 0 0.01 0.0 0 0 0 0.0 0
260 1 1.0 -8.0 0.5 0 0.01 0.0 0 0 0 0.0 0
261 1 1.0 -7.0 -0.5 0 0.01 0.0 0 0 0 0.0 0
262 1 1.5 -6.5 0.0 0 0.01 0.0 0 0 0 0.0 0
263 1 1.0 -7.0 0.5 0 0.01 0.0 0 0 0 0.0 0
264 1 1.0 -6.0 -0.5 0 0.01 0.0 0 0 0 0.0 0
265 1 1.5 -5.5 0.0 0 0.01 0.0 0 0 0 0.0 0
266 1 1.0 -6.0 0.5 0 0.01 0.0 0 0 0 0.0 0
267 1 1.0 -5.0 -0.5 0 0.01 0.0 0 0 0 0.0 0
268 1 1.5 -4.5 0.0 0 0.01 0.0 0 0 0 0.0 0
269 1 1.0 -5.0 0.5 0 0.01 0.0 0 0 0 0.0 0
270 1 1.0 -4.0 -0.5 0 0.01 0.0 0 0 0 0.0 0
271 1 1.5 -3.5 0.0 0 0.01 0.0 0 0 0 0.0 0
272 1 1.0 -4.0 0.5 0 0.01 0.0 0 0 0 0.0 0
273 1 1.0 4.0 -0.5 0 0.01 0.0 0 0 0 0.0 0
274 1 1.5 4.5 0.0 0 0.01 0.0 0 0 0 0.0 0
275 1 1.0 4.0 0.5 0 0.01 0.0 0 0 0 0.0 0
276 1 1.0 5.0 -0.5 0 0.01 0.0 0 0 0 0.0 0
277 1 1.5 5.5 0.0 0 0.01 0.0 0 0 0 0.0 0
278 1 1.0 5.0 0.5 0 0.01 0.0 0 0 0 0.0 0
279 1 1.0 6.0 -0.5 0 0.01 0.0 0 0 0 0.0 0
280 1 1.0 6.0 0.5 0 0.01 0.0 0 0 0 0.0 0
281 1 2.0 -9.0 -0.5 0 0.01 0.0 0 0 0 0.0 0
282 1 2.5 -8.5 0.0 0 0.01 0.0 0 0 0 0.0 0
283 1 2.0 -9.0 0.5 0 0.01 0.0 0 0 0 0.0 0
284 1 2.0 -8.0 -0.5 0 0.01 0.0 0 0 0 0.0 0
285 1 2.5 -7.5 0.0 0 0.01 0.0 0 0 0 0.0 0
286 1 2.0 -8.0 0.5 0 0.01 0.0 0 0 0 0.0 0
287 1 2.0 -7.0 -0.5 0 0.01 0.0 0 0 0 0.0 0
288 1 2.5 -6.5 0.0 0 0.01 0.0 0 0 0 0.0 0
289 1 2.0 -7.0 0.5 0 0.01 0.0 0 0 0 0.0 0
290 1 2.0 -6.0 -0.5 0 0.01 0.0 0 0 0 0.0 0
291 1 2.5 -5.5 0.0 0 0.01 0.0 0 0 0 0.0 0
292 1 2.0 -6.0 0.5 0 0.01 0.0 0 0 0 0.0 0
293 1 2.0 -5.0 -0.5 0 0.01 0.0 0 0 0 0.0 0
294 1 2.5 -4.5 0.0 0 0.01 0.0 0 0 0 0.0 0
295 1 2.0 -5.0 0.5 0 0.01 0.0 0 0 0 0.0 0
296 1 2.0 -4.0 -0.5 0 0.01 0.0 0 0 0 0.0 0
297 1 2.5 -3.5 0.0 0 0.01 0.0 0 0 0 0.0 0
298 1 2.0 -4.0 0.5 0 0.01 0.0 0 0 0 0.0 0
299 1 2.0 4.0 -0.5 0 0.01 0.0 0 0 0 0.0 0
300 1 2.5 4.5 0.0 0 0.01 0.0 0 0 0 0.0 0
301 1 2.0 4.0 0.5 0 0.01 0.0 0 0 0 0.0 0
302 1 2.0 5.0 -0.5 0 0.01 0.0 0 0 0 0.0 0
303 1 2.5 5.5 0.0 0 0.01 0.0 0 0 0 0.0 0
304 1 2.0 5.0 0.5 0 0.01 0.0 0 0 0 0.0 0
305 1 2.0 6.0 -0.5 0 0.01 0.0 0 0 0 0.0 0
306 1 2.0 6.0 0.5 0 0.01 0.0 0 0 0 0.0 0
307 1 3.0 -8.0 -0.5 0 0.01 0.0 0 0 0 0.0 0
308 1 3.5 -7.5 0.0 0 0.01 0.0 0 0 0 0.0 0
309 1 3.0 -8.0 0.5 0 0.01 0.0 0 0 0 0.0 0
310 1 3.0 -7.0 -0.5 0 0.01 0.0 0 0 0 0.0 0
311 1 3.5 -6.5 0.0 0 0.01 0.0 0 0 0 0.0 0
312 1 3.0 -7.0 0.5 0 0.01 0.0 0 0 0 0.0 0
313 1 3.0 -6.0 -0.5 0 0.01 0.0 0 0 0 0.0 0
314 1 3.5 -5.5 0.0 0 0.01 0.0 0 0 0 0.0 0
315 1 3.0 -6.0 0.5 0 0.01 0.0 0 0 0 0.0 0
316 1 3.0 -5.0 -0.5 0 0.01 0.0 0 0 0 0.0 0
317 1 3.5 -4.5 0.0 0 0.01 0.0 0 0 0 0.0 0
318 1 3.0 -5.0 0.5 0 0.01 0.0 0 0 0 0.0 0
319 1 3.0 -4.0 -0.5 0 0.01 0.0 0 0 0 0.0 0
320 1 3.5 -3.5 0.0 0 0.01 0.0 0 0 0 0.0 0
321 1 3.0 -4.0 0.5 0 0.01 0.0 0 0 0 0.0 0
322 1 3.0 -3.0 -0.5 0 0.01 0.0 0 0 0 0.0 0
323 1 3.5 -2.5 0.0 0 0.01 0.0 0 0 0 0.0 0
324 1 3.0 -3.0 0.5 0 0.01 0.0 0 0 0 0.0 0
325 1 3.0 3.0 -0.5 0 0.01 0.0 0 0 0 0.0 0
326 1 3.5 3.5 0.0 0 0.01 0.0 0 0 0 0.0 0
327 1 3.0 3.0 0.5 0 0.01 0.0 0 0 0 0.0 0
328 1 3.0 4.0 -0.5 0 0.01 0.0 0 0 0 0.0 0
329 1 3.5 4.5 0.0 0 0.01 0.0 0 0 0 0.0 0
330 1 3.0 4.0 0.5 0 0.01 0.0 0 0 0 0.0 0
331 1 3.0 5.0 -0.5 0 0.01 0.0 0 0 0 0.0 0
332 1 3.5 5.5 0.0 0 0.01 0.0 0 0 0 0.0 0
333 1 3.0 5.0 0.5 0 0.01 0.0 0 0 0 0.0 0
334 1 3.0 6.0 -0.5 0 0.01 0.0 0 0 0 0.0 0
335 1 3.0 6.0 0.5 0 0.01 0.0 0 0 0 0.0 0
336 1 4.0 -7.0 -0.5 0 0.01 0.0 0 0 0 0.0 0
337 1 4.5 -6.5 0.0 0 0.01 0.0 0 0 0 0.0 0
338 1 4.0 -7.0 0.5 0 0.01 0.0 0 0 0 0.0 0
339 1 4.0 -6.0 -0.5 0 0.01 0.0 0 0 0 0.0 0
340 1 4.5 -5.5 0.0 0 0.01 0.0 0 0 0 0.0 0
341 1 4.0 -6.0 0.5 0 0.01 0.0 0 0 0 0.0 0
342 1 4.0 -5.0 -0.5 0 0.01 0.0 0 0 0 0.0 0
343 1 4.5 -4.5 0.0 0 0.01 0.0 0 0 0 0.0 0
344 1 4.0 -5.0 0.5 0 0.01 0.0 0 0 0 0.0 0
345 1 4.0 -4.0 -0.5 0 0.01 0.0 0 0 0 0.0 0
346 1 4.5 -3.5 0.0 0 0.01 0.0 0 0 0 0.0 0
347 1 4.0 -4.0 0.5 0 0.01 0.0 0 0 0 0.0 0
348 1 4.0 -3.0 -0.5 0 0.01 0.0 0 0 0 0.0 0
349 1 4.5 -2.5 0.0 0 0.01 0.0 0 0 0 0.0 0
350 1 4.0 -3.0 0.5 0 0.01 0.0 0 0 0 0.0 0
351 1 4.0 -2.0 -0.5 0 0.01 0.0 0 0 0 0.0 0
352 1 4.5 -1.5 0.0 0 0.01 0.0 0 0 0 0.0 0
353 1 4.0 -2.0 0.5 0 0.01 0.0 0 0 0 0.0 0
354 1 4.0 -1.0 -0.5 0 0.01 0.0 0 0 0 0.0 0
355 1 4.5 -0.5 0.0 0 0.01 0.0 0 0 0 0.0 0
356 1 4.0 -1.0 0.5 0 0.01 0.0 0 0 0 0.0 0
357 1 4.0 0.0 -0.5 0 0.01 0.0 0 0 0 0.0 0
358 1 4.5 0.5 0.0 0 0.01 0.0 0 0 0 0.0 0
359 1 4.0 0.0 0.5 0 0.01 0.0 0 0 0 0.0 0
360 1 4.0 1.0 -0.5 0 0.01 0.0 0 0 0 0.0 0
361 1 4.5 1.5 0.0 0 0.01 0.0 0 0 0 0.0 0
362 1 4.0 1.0 0.5 0 0.01 0.0 0 0 0 0.0 0
363 1 4.0 2.0 -0.5 0 0.01 0.0 0 0 0 0.0 0
364 1 4.5 2.5 0.0 0 0.01 0.0 0 0 0 0.0 0
365 1 4.0 2.0 0.5 0 0.01 0.0 0 0 0 0.0 0
366 1 4.0 3.0 -0.5 0 0.01 0.0 0 0 0 0.0 0
367 1 4.5 3.5 0.0 0 0.01 0.0 0 0 0 0.0 0
368 1 4.0 3.0 0.5 0 0.01 0.0 0 0 0 0.0 0
369 1 4.0 4.0 -0.5 0 0.01 0.0 0 0 0 0.0 0
370 1 4.5 4.5 0.0 0 0.01 0.0 0 0 0 0.0 0
371 1 4.0 4.0 0.5 0 0.01 0.0 0 0 0 0.0 0
372 1 4.0 5.0 -0.5 0 0.01 0.0 0 0 0 0.0 0
373 1 4.5 5.5 0.0 0 0.01 0.0 0 0 0 0.0 0
374 1 4.0 5.0 0.5 0 0.01 0.0 0 0 0 0.0 0
375 1 4.0 6.0 -0.5 0 0.01 0.0 0 0 0 0.0 0
376 1 4.0 6.0 0.5 0 0.01 0.0 0 0 0 0.0 0
377 1 5.0 -6.0 -0.5 0 0.01 0.0 0 0 0 0.0 0
378 1 5.5 -5.5 0.0 0 0.01 0.0 0 0 0 0.0 0
379 1 5.0 -6.0 0.5 0 0.01 0.0 0 0 0 0.0 0
380 1 5.0 -5.0 -0.5 0 0.01 0.0 0 0 0 0.0 0
381 1 5.5 -4.5 0.0 0 0.01 0.0 0 0 0 0.0 0
382 1 5.0 -5.0 0.5 0 0.01 0.0 0 0 0 0.0 0
383 1 5.0 -4.0 -0.5 0 0.01 0.0 0 0 0 0.0 0
384 1 5.5 -3.5 0.0 0 0.01 0.0 0 0 0 0.0 0
385 1 5.0 -4.0 0.5 0 0.01 0.0 0 0 0 0.0 0
386 1 5.0 -3.0 -0.5 0 0.01 0.0 0 0 0 0.0 0
387 1 5.5 -2.5 0.0 0 0.01 0.0 0 0 0 0.0 0
388 1 5.0 -3.0 0.5 0 0.01 0.0 0 0 0 0.0 0
389 1 5.0 -2.0 -0.5 0 0.01 0.0 0 0 0 0.0 0
390 1 5.5 -1.5 0.0 0 0.01 0.0 0 0 0 0.0 0
391 1 5.0 -2.0 0.5 0 0.01 0.0 0 0 0 0.0 0
392 1 5.0 -1.0 -0.5 0 0.01 0.0 0 0 0 0.0 0
393 1 5.5 -0.5 0.0 0 0.01 0.0 0 0 0 0.0 0
394 1 5.0 -1.0 0.5 0 0.01 0.0 0 0 0 0.0 0
395 1 5.0 0.0 -0.5 0 0.01 0.0 0 0 0 0.0 0
396 1 5.5 0.5 0.0 0 0.01 0.0 0 0 0 0.0 0
397 1 5.0 0.0 0.5 0 0.01 0.0 0 0 0 0.0 0
398 1 5.0 1.0 -0.5 0 0.01 0.0 0 0 0 0.0 0
399 1 5.5 1.5 0.0 0 0.01 0.0 0 0 0 0.0 0
400 1 5.0 1.0 0.5 0 0.01 0.0 0 0 0 0.0 0
401 1 5.0 2.0 -0.5 0 0.01 0.0 0 0 0 0.0 0
402 1 5.5 2.5 0.0 0 0.01 0.0 0 0 0 0.0 0
403 1 5.0 2.0 0.5 0 0.01 0.0 0 0 0 0.0 0
404 1 5.0 3.0 -0.5 0 0.01 0.0 0 0 0 0.0 0
405 1 5.5 3.5 0.0 0 0.01 0.0 0 0 0 0.0 0
406 1 5.0 3.0 0.5 0 0.01 0.0 0 0 0 0.0 0
407 1 5.0 4.0 -0.5 0 0.01 0.0 0 0 0 0.0 0
408 1 5.5 4.5 0.0 0 0.01 0.0 0 0 0 0.0 0
409 1 5.0 4.0 0.5 0 0.01 0.0 0 0 0 0.0 0
410 1 5.0 5.0 -0.5 0 0.01 0.0 0 0 0 0.0 0
411 1 5.5 5.5 0.0 0 0.01 0.0 0 0 0 0.0 0
412 1 5.0 5.0 0.5 0 0.01 0.0 0 0 0 0.0 0
413 1 6.0 -4.0 -0.5 0 0.01 0.0 0 0 0 0.0 0
414 1 6.0 -4.0 0.5 0 0.01 0.0 0 0 0 0.0 0
415 1 6.0 -3.0 -0.5 0 0.01 0.0 0 0 0 0.0 0
416 1 6.0 -3.0 0.5 0 0.01 0.0 0 0 0 0.0 0
417 1 6.0 -2.0 -0.5 0 0.01 0.0 0 0 0 0.0 0
418 1 6.0 -2.0 0.5 0 0.01 0.0 0 0 0 0.0 0
419 1 6.0 -1.0 -0.5 0 0.01 0.0 0 0 0 0.0 0
420 1 6.0 -1.0 0.5 0 0.01 0.0 0 0 0 0.0 0
421 1 6.0 0.0 -0.5 0 0.01 0.0 0 0 0 0.0 0
422 1 6.5 0.5 0.0 0 0.01 0.0 0 0 0 0.0 0
423 1 6.0 0.0 0.5 0 0.01 0.0 0 0 0 0.0 0
424 1 6.0 1.0 -0.5 0 0.01 0.0 0 0 0 0.0 0
425 1 6.5 1.5 0.0 0 0.01 0.0 0 0 0 0.0 0
426 1 6.0 1.0 0.5 0 0.01 0.0 0 0 0 0.0 0
427 1 6.0 2.0 -0.5 0 0.01 0.0 0 0 0 0.0 0
428 1 6.5 2.5 0.0 0 0.01 0.0 0 0 0 0.0 0
429 1 6.0 2.0 0.5 0 0.01 0.0 0 0 0 0.0 0
430 1 6.0 3.0 -0.5 0 0.01 0.0 0 0 0 0.0 0
431 1 6.5 3.5 0.0 0 0.01 0.0 0 0 0 0.0 0
432 1 6.0 3.0 0.5 0 0.01 0.0 0 0 0 0.0 0
433 1 6.0 4.0 -0.5 0 0.01 0.0 0 0 0 0.0 0
434 1 6.5 4.5 0.0 0 0.01 0.0 0 0 0 0.0 0
435 1 6.0 4.0 0.5 0 0.01 0.0 0 0 0 0.0 0
436 1 6.0 5.0 -0.5 0 0.01 0.0 0 0 0 0.0 0
437 1 6.0 5.0 0.5 0 0.01 0.0 0 0 0 0.0 0
438 1 7.0 0.0 -0.5 0 0.01 0.0 0 0 0 0.0 0
439 1 7.5 0.5 0.0 0 0.01 0.0 0 0 0 0.0 0
440 1 7.0 0.0 0.5 0 0.01 0.0 0 0 0 0.0 0
441 1 7.0 1.0 -0.5 0 0.01 0.0 0 0 0 0.0 0
442 1 7.5 1.5 0.0 0 0.01 0.0 0 0 0 0.0 0
443 1 7.0 1.0 0.5 0 0.01 0.0 0 0 0 0.0 0
444 1 7.0 2.0 -0.5 0 0.01 0.0 0 0 0 0.0 0
445 1 7.5 2.5 0.0 0 0.01 0.0 0 0 0 0.0 0
446 1 7.0 2.0 0.5 0 0.01 0.0 0 0 0 0.0 0
447 1 7.0 3.0 -0.5 0 0.01 0.0 0 0 0 0.0 0
448 1 7.5 3.5 0.0 0 0.01 0.0 0 0 0 0.0 0
449 1 7.0 3.0 0.5 0 0.01 0.0 0 0 0 0.0 0
450 1 7.0 4.0 -0.5 0 0.01 0.0 0 0 0 0.0 0
451 1 7.0 4.0 0.5 0 0.01 0.0 0 0 0 0.0 0
452 1 8.0 0.0 -0.5 0 0.01 0.0 0 0 0 0.0 0
453 1 8.5 0.5 0.0 0 0.01 0.0 0 0 0 0.0 0
454 1 8.0 0.0 0.5 0 0.01 0.0 0 0 0 0.0 0
455 1 8.0 1.0 -0.5 0 0.01 0.0 0 0 0 0.0 0
456 1 8.5 1.5 0.0 0 0.01 0.0 0 0 0 0.0 0
457 1 8.0 1.0 0.5 0 0.01 0.0 0 0 0 0.0 0
458 1 8.0 2.0 -0.5 0 0.01 0.0 0 0 0 0.0 0
459 1 8.5 2.5 0.0 0 0.01 0.0 0 0 0 0.0 0
460 1 8.0 2.0 0.5 0 0.01 0.0 0 0 0 0.0 0
461 1 8.0 3.0 -0.5 0 0.01 0.0 0 0 0 0.0 0
462 1 8.0 3.0 0.5 0 0.01 0.0 0 0 0 0.0 0
463 1 9.0 0.0 -0.5 0 0.01 0.0 0 0 0 0.0 0
464 1 9.5 0.5 0.0 0 0.01 0.0 0 0 0 0.0 0
465 1 9.0 0.0 0.5 0 0.01 0.0 0 0 0 0.0 0
466 1 9.0 1.0 -0.5 0 0.01 0.0 0 0 0 0.0 0
467 1 9.0 1.0 0.5 0 0.01 0.0 0 0 0 0.0 0
468 1 9.0 2.0 -0.5 0 0.01 0.0 0 0 0 0.0 0
469 1 9.0 2.0 0.5 0 0.01 0.0 0 0 0 0.0 0
470 1 10.0 0.0 -0.5 0 0.01 0.0 0 0 0 0.0 0
471 1 10.0 0.0 0.5 0 0.01 0.0 0 0 0 0.0 0

Bonds

1 1 267 269
2 2 129 155
3 2 9 10
4 2 1 6
5 2 300 302
6 1 12 15
7 2 399 424
8 2 162 188
9 2 42 43
10 2 74 75
11 1 333 335
12 1 45 48
13 2 377 378
14 2 4 16
15 2 84 125
16 1 95 134
17 2 343 385
18 1 195 221
19 2 75 76
20 2 147 181
21 2 355 359
22 2 107 108
23 1 365 403
24 1 366 368
25 2 337 341
26 2 144 175
27 2 410 411
28 1 96 135
29 1 97 100
30 1 196 222
31 2 355 395
32 2 108 109
33 2 367 369
34 2 358 400
35 2 399 401
36 2 370 374
37 1 30 46
38 1 130 133
39 1 229 255
40 2 189 219
41 2 141 142
42 2 444 445
43 1 163 166
44 1 262 288
45 2 174 175
46 2 206 244
47 1 433 435
48 1 466 468
49 1 178 181
50 2 317 345
51 1 229 232
52 2 208 209
53 2 320 350
54 1 273 275
55 1 211 214
56 1 443 457
57 1 262 265
58 2 241 242
59 1 421 438
60 1 40 72
61 2 405 430
62 2 4 6
63 2 55 88
64 1 295 298
65 2 274 275
66 1 339 341
67 2 37 39
68 1 395 421
69 1 328 331
70 2 387 417
71 2 307 308
72 1 339 377
73 2 7 16
74 2 69 107
75 2 150 181
76 2 129 158
77 1 329 332
78 2 114 115
79 2 340 341
80 1 372 410
81 2 373 375
82 2 361 400
83 1 235 261
84 1 362 365
85 2 147 148
86 2 105 151
87 1 104 106
88 1 268 294
89 1 395 398
90 2 180 181
91 2 439 441
92 1 137 139
93 2 236 261
94 1 428 431
95 1 170 172
96 1 202 241
97 2 214 215
98 1 465 471
99 2 212 254
100 2 291 318
101 2 203 205
102 2 247 248
103 1 427 444
104 1 10 12
105 2 236 238
106 1 47 79
107 2 439 454
108 2 431 450
109 1 131 158
110 2 43 45
111 2 390 418
112 2 428 444
113 1 302 305
114 1 401 427
115 2 313 314
116 2 32 35
117 2 11 12
118 2 64 104
119 2 291 295
120 2 135 164
121 1 402 428
122 2 314 315
123 2 346 347
124 2 405 433
125 1 33 36
126 2 132 158
127 1 65 68
128 2 364 401
129 2 303 305
130 1 368 371
131 1 65 104
132 1 66 69
133 2 165 191
134 2 77 78
135 1 110 112
136 1 336 338
137 1 369 372
138 1 401 404
139 2 87 128
140 2 380 381
141 1 98 137
142 1 31 47
143 2 90 133
144 1 143 145
145 2 242 267
146 2 114 118
147 1 402 405
148 2 434 437
149 2 21 39
150 1 413 414
151 1 132 135
152 2 24 44
153 2 464 465
154 1 176 178
155 2 147 151
156 1 165 168
157 2 297 324
158 2 177 179
159 2 209 211
160 2 242 244
161 1 301 330
162 2 434 450
163 2 453 463
164 1 232 235
165 2 17 18
166 2 396 423
167 1 276 278
168 2 308 310
169 1 6 8
170 1 39 42
171 2 138 164
172 1 265 268
173 2 408 433
174 1 168 192
175 1 71 110
176 1 72 75
177 2 171 197
178 2 51 52
179 1 359 397
180 2 83 84
181 1 341 379
182 1 342 344
183 2 93 134
184 2 40 42
185 2 352 394
186 1 105 108
187 2 84 85
188 2 116 117
189 2 364 368
190 2 2 15
191 1 106 109
192 2 17 31
193 1 138 141
194 2 117 118
195 1 237 263
196 2 408 410
197 2 27 44
198 2 168 169
199 2 227 255
200 2 259 287
201 1 139 142
202 1 238 264
203 1 270 296
204 2 150 151
205 2 230 260
206 2 108 154
207 1 441 443
208 1 271 297
209 2 183 184
210 2 442 444
211 1 204 243
212 1 238 241
213 1 429 446
214 1 48 80
215 1 239 242
216 1 430 447
217 2 282 283
218 2 422 443
219 1 49 81
220 1 133 160
221 1 13 15
222 1 45 47
223 2 384 416
224 1 403 429
225 2 2 5
226 1 134 161
227 2 126 157
228 2 46 48
229 2 393 421
230 1 325 366
231 1 337 340
232 2 396 426
233 2 96 134
234 2 355 394
235 1 326 367
236 2 367 368
237 1 338 341
238 1 370 373
239 2 349 350
240 2 9 22
241 2 78 121
242 1 371 374
243 1 403 406
244 1 415 417
245 2 233 260
246 2 433 434
247 2 285 307
248 2 111 154
249 1 404 407
250 2 448 450
251 1 466 467
252 2 27 47
253 2 168 172
254 2 200 204
255 1 179 181
256 1 211 213
257 2 233 237
258 2 212 214
259 1 244 246
260 1 463 470
261 2 256 257
262 1 455 466
263 1 55 87
264 2 425 443
265 2 19 20
266 1 278 280
267 1 410 436
268 2 129 157
269 2 9 12
270 2 1 8
271 1 41 44
272 2 399 426
273 2 300 304
274 2 311 313
275 1 344 347
276 1 151 181
277 1 170 194
278 2 162 190
279 1 42 45
280 2 141 167
281 1 361 399
282 1 74 77
283 2 381 414
284 1 173 199
285 2 332 372
286 2 373 410
287 1 92 131
288 2 84 127
289 2 4 18
290 1 377 380
291 2 104 105
292 2 195 223
293 1 75 78
294 1 174 200
295 1 362 400
296 1 107 110
297 2 86 87
298 2 96 137
299 2 137 138
300 1 108 111
301 2 119 120
302 2 367 371
303 2 399 403
304 2 251 276
305 1 258 284
306 1 443 446
307 2 30 48
308 2 170 171
309 1 240 266
310 1 173 176
311 2 152 153
312 1 185 187
313 1 444 447
314 2 203 204
315 2 262 290
316 1 174 177
317 2 206 246
318 2 218 220
319 2 236 237
320 1 439 453
321 2 251 253
322 2 431 449
323 2 317 347
324 1 240 243
325 1 440 454
326 2 402 427
327 2 26 27
328 2 40 74
329 1 432 449
330 2 405 432
331 2 285 287
332 1 33 35
333 2 4 8
334 1 383 413
335 2 303 304
336 1 274 277
337 2 165 190
338 2 37 41
339 1 136 163
340 1 48 50
341 2 336 337
342 1 368 406
343 1 369 371
344 1 180 206
345 1 307 310
346 2 87 127
347 2 7 18
348 2 66 104
349 1 351 353
350 2 69 109
351 1 369 407
352 2 81 83
353 1 328 369
354 1 114 117
355 2 402 404
356 1 340 343
357 2 99 137
358 2 405 409
359 2 384 386
360 1 11 24
361 1 435 437
362 1 147 150
363 1 417 419
364 2 177 178
365 2 268 296
366 2 439 443
367 2 265 290
368 1 280 306
369 2 192 193
370 1 214 217
371 1 313 339
372 1 232 234
373 2 203 207
374 2 276 277
375 1 247 250
376 2 46 80
377 1 57 89
378 2 265 267
379 1 397 423
380 2 277 278
381 2 236 240
382 2 7 8
383 1 58 90
384 2 43 47
385 2 390 420
386 2 310 311
387 2 342 343
388 1 313 316
389 2 40 41
390 2 72 110
391 1 11 14
392 2 64 106
393 2 135 166
394 2 55 57
395 1 334 375
396 2 343 344
397 1 346 349
398 2 132 160
399 1 44 47
400 1 17 30
401 2 364 403
402 1 94 133
403 1 194 220
404 1 379 382
405 2 186 216
406 2 165 193
407 1 18 31
408 1 77 80
409 1 28 44
410 2 87 130
411 2 239 264
412 2 271 296
413 2 242 269
414 2 442 443
415 2 21 41
416 2 464 467
417 1 446 449
418 2 209 213
419 1 460 469
420 2 239 241
421 2 242 246
422 1 441 455
423 2 13 14
424 1 442 456
425 1 2 4
426 2 14 15
427 2 46 47
428 2 393 420
429 2 308 312
430 1 67 106
431 2 326 366
432 2 138 166
433 1 50 53
434 2 408 435
435 1 9 21
436 2 320 322
437 1 68 107
438 2 168 194
439 1 100 139
440 2 80 81
441 1 370 408
442 1 83 86
443 1 415 416
444 2 93 136
445 2 113 114
446 1 371 409
447 1 116 119
448 1 404 406
449 2 448 449
450 1 386 388
451 1 234 260
452 2 146 147
453 1 289 312
454 2 408 412
455 1 168 171
456 2 227 257
457 1 267 293
458 2 259 289
459 2 179 180
460 1 150 153
461 1 438 440
462 1 200 239
463 1 201 204
464 2 212 213
465 1 183 186
466 1 201 240
467 1 234 237
468 2 245 246
469 2 464 470
470 1 216 219
471 1 315 341
472 2 456 466
473 2 448 462
474 1 267 270
475 1 426 443
476 2 37 73
477 1 249 252
478 1 9 11
479 1 1 7
480 1 399 425
481 1 279 280
482 2 311 312
483 1 282 285
484 2 49 83
485 1 130 157
486 1 42 44
487 2 381 413
488 1 400 426
489 1 344 382
490 1 315 318
491 2 75 77
492 2 174 199
493 2 46 50
494 1 57 59
495 2 345 346
496 2 144 176
497 2 96 136
498 2 108 110
499 1 367 370
500 2 378 379
501 2 90 92
502 2 30 47
503 1 273 299
504 1 400 403
505 2 185 186
506 2 411 412
507 1 444 446
508 2 262 289
509 2 174 176
510 1 206 245
511 1 433 436
512 2 285 309
513 2 274 299
514 2 445 446
515 1 208 210
516 1 299 328
517 1 241 243
518 2 285 286
519 1 452 463
520 1 256 259
521 1 4 7
522 2 55 89
523 2 274 276
524 1 406 432
525 2 52 83
526 1 289 292
527 2 16 17
528 2 48 49
529 2 180 205
530 2 19 22
531 2 159 182
532 1 307 309
533 2 387 418
534 2 319 320
535 2 351 352
536 1 69 108
537 2 49 50
538 2 329 333
539 2 81 82
540 2 340 342
541 2 373 376
542 2 352 353
543 2 311 315
544 2 384 385
545 2 11 23
546 1 70 109
547 2 329 369
548 2 361 401
549 2 332 374
550 2 373 412
551 1 406 409
552 1 417 418
553 1 104 107
554 2 195 225
555 1 374 376
556 1 450 451
557 1 137 140
558 1 236 262
559 2 248 273
560 1 407 409
561 1 440 443
562 2 251 278
563 2 30 50
564 1 269 295
565 1 214 216
566 1 203 206
567 2 262 292
568 2 182 183
569 2 314 339
570 1 247 249
571 1 306 335
572 2 218 222
573 1 236 239
574 2 215 216
575 2 248 250
576 2 439 455
577 1 458 468
578 2 431 451
579 2 58 89
580 1 269 272
581 1 428 445
582 1 281 283
583 1 313 315
584 2 11 13
585 2 55 56
586 2 402 429
587 1 26 29
588 2 314 316
589 2 40 76
590 1 132 159
591 1 76 115
592 1 364 402
593 1 176 202
594 2 303 306
595 1 346 384
596 2 66 70
597 1 77 79
598 1 177 203
599 1 110 113
600 2 89 90
601 1 336 339
602 1 380 382
603 2 66 106
604 1 198 225
605 2 78 80
606 1 242 268
607 2 81 85
608 2 122 123
609 2 402 406
610 2 381 383
611 1 413 415
612 2 99 139
613 2 384 388
614 2 132 136
615 2 11 26
616 2 111 113
617 1 102 144
618 1 243 269
619 1 275 301
620 2 155 156
621 1 414 416
622 2 144 146
623 1 177 180
624 1 276 302
625 2 268 298
626 2 188 189
627 1 447 449
628 2 265 292
629 1 210 213
630 1 209 248
631 2 221 222
632 1 243 246
633 2 442 455
634 2 434 451
635 1 453 464
636 1 276 279
637 2 287 288
638 1 54 86
639 2 46 82
640 2 265 269
641 2 277 280
642 1 309 312
643 1 408 434
644 2 288 289
645 2 320 321
646 2 58 92
647 1 139 166
648 1 51 53
649 1 330 371
650 1 310 313
651 1 409 435
652 1 342 345
653 1 40 43
654 1 13 26
655 2 72 112
656 1 331 372
657 2 84 86
658 2 183 208
659 1 343 346
660 2 354 355
661 2 386 387
662 1 14 27
663 1 73 76
664 2 117 119
665 1 408 411
666 2 387 388
667 2 150 152
668 2 438 439
669 1 409 412
670 1 441 444
671 2 239 266
672 2 271 298
673 2 183 185
674 2 282 307
675 1 442 445
676 2 453 454
677 1 217 219
678 1 60 92
679 2 239 243
680 1 438 452
681 1 250 252
682 2 282 284
683 2 49 82
684 1 13 16
685 2 24 25
686 2 61 92
687 1 14 17
688 1 46 49
689 2 57 58
690 1 316 318
691 2 360 361
692 1 47 50
693 2 326 368
694 1 366 404
695 1 79 82
696 2 58 59
697 1 178 204
698 2 337 377
699 2 90 91
700 2 349 351
701 1 97 136
702 2 9 23
703 2 168 196
704 1 367 405
705 1 80 83
706 1 179 205
707 1 79 118
708 1 112 115
709 2 370 410
710 2 233 261
711 1 113 116
712 1 145 148
713 1 244 270
714 1 285 308
715 2 256 281
716 2 448 451
717 2 427 428
718 1 146 149
719 1 245 271
720 1 416 418
721 1 278 304
722 1 449 451
723 2 200 241
724 2 300 328
725 1 211 250
726 1 212 215
727 1 311 337
728 2 223 224
729 1 444 458
730 2 256 258
731 2 34 65
732 2 425 444
733 2 456 468
734 1 19 21
735 2 445 458
736 1 56 88
737 1 20 22
738 1 140 167
739 2 399 427
740 2 64 65
741 1 311 314
742 2 49 85