#LAMMPS data file for cubic lattice with middle particle bonds

467 atoms
2062 bonds
1 atom types
2 bond types
-27.0 27.0 xlo xhi
-27.0 27.0 ylo yhi
-2.0 2.0 zlo zhi

Masses

1 1.0

Bond Coeffs

1 0.1 1
2 0.1 0.8660254037844386

Atoms

1 1 -7.5 -2.5 0.0 0 0.01 0.0 0 0 0 0.0 0
2 1 -7.5 -1.5 0.0 0 0.01 0.0 0 0 0 0.0 0
3 1 -7.5 -0.5 0.0 0 0.01 0.0 0 0 0 0.0 0
4 1 -8.0 0.0 -0.5 0 0.01 0.0 0 0 0 0.0 0
5 1 -7.5 0.5 0.0 0 0.01 0.0 0 0 0 0.0 0
6 1 -8.0 0.0 0.5 0 0.01 0.0 0 0 0 0.0 0
7 1 -7.5 1.5 0.0 0 0.01 0.0 0 0 0 0.0 0
8 1 -7.5 2.5 0.0 0 0.01 0.0 0 0 0 0.0 0
9 1 -6.5 -4.5 0.0 0 0.01 0.0 0 0 0 0.0 0
10 1 -6.5 -3.5 0.0 0 0.01 0.0 0 0 0 0.0 0
11 1 -7.0 -3.0 -0.5 0 0.01 0.0 0 0 0 0.0 0
12 1 -6.5 -2.5 0.0 0 0.01 0.0 0 0 0 0.0 0
13 1 -7.0 -3.0 0.5 0 0.01 0.0 0 0 0 0.0 0
14 1 -7.0 -2.0 -0.5 0 0.01 0.0 0 0 0 0.0 0
15 1 -6.5 -1.5 0.0 0 0.01 0.0 0 0 0 0.0 0
16 1 -7.0 -2.0 0.5 0 0.01 0.0 0 0 0 0.0 0
17 1 -7.0 -1.0 -0.5 0 0.01 0.0 0 0 0 0.0 0
18 1 -6.5 -0.5 0.0 0 0.01 0.0 0 0 0 0.0 0
19 1 -7.0 -1.0 0.5 0 0.01 0.0 0 0 0 0.0 0
20 1 -7.0 0.0 -0.5 0 0.01 0.0 0 0 0 0.0 0
21 1 -6.5 0.5 0.0 0 0.01 0.0 0 0 0 0.0 0
22 1 -7.0 0.0 0.5 0 0.01 0.0 0 0 0 0.0 0
23 1 -7.0 1.0 -0.5 0 0.01 0.0 0 0 0 0.0 0
24 1 -6.5 1.5 0.0 0 0.01 0.0 0 0 0 0.0 0
25 1 -7.0 1.0 0.5 0 0.01 0.0 0 0 0 0.0 0
26 1 -7.0 2.0 -0.5 0 0.01 0.0 0 0 0 0.0 0
27 1 -6.5 2.5 0.0 0 0.01 0.0 0 0 0 0.0 0
28 1 -7.0 2.0 0.5 0 0.01 0.0 0 0 0 0.0 0
29 1 -7.0 3.0 -0.5 0 0.01 0.0 0 0 0 0.0 0
30 1 -6.5 3.5 0.0 0 0.01 0.0 0 0 0 0.0 0
31 1 -7.0 3.0 0.5 0 0.01 0.0 0 0 0 0.0 0
32 1 -6.5 4.5 0.0 0 0.01 0.0 0 0 0 0.0 0
33 1 -5.5 -5.5 0.0 0 0.01 0.0 0 0 0 0.0 0
34 1 -6.0 -5.0 -0.5 0 0.01 0.0 0 0 0 0.0 0
35 1 -5.5 -4.5 0.0 0 0.01 0.0 0 0 0 0.0 0
36 1 -6.0 -5.0 0.5 0 0.01 0.0 0 0 0 0.0 0
37 1 -6.0 -4.0 -0.5 0 0.01 0.0 0 0 0 0.0 0
38 1 -5.5 -3.5 0.0 0 0.01 0.0 0 0 0 0.0 0
39 1 -6.0 -4.0 0.5 0 0.01 0.0 0 0 0 0.0 0
40 1 -6.0 -3.0 -0.5 0 0.01 0.0 0 0 0 0.0 0
41 1 -5.5 -2.5 0.0 0 0.01 0.0 0 0 0 0.0 0
42 1 -6.0 -3.0 0.5 0 0.01 0.0 0 0 0 0.0 0
43 1 -6.0 -2.0 -0.5 0 0.01 0.0 0 0 0 0.0 0
44 1 -5.5 -1.5 0.0 0 0.01 0.0 0 0 0 0.0 0
45 1 -6.0 -2.0 0.5 0 0.01 0.0 0 0 0 0.0 0
46 1 -6.0 -1.0 -0.5 0 0.01 0.0 0 0 0 0.0 0
47 1 -5.5 -0.5 0.0 0 0.01 0.0 0 0 0 0.0 0
48 1 -6.0 -1.0 0.5 0 0.01 0.0 0 0 0 0.0 0
49 1 -6.0 0.0 -0.5 0 0.01 0.0 0 0 0 0.0 0
50 1 -5.5 0.5 0.0 0 0.01 0.0 0 0 0 0.0 0
51 1 -6.0 0.0 0.5 0 0.01 0.0 0 0 0 0.0 0
52 1 -6.0 1.0 -0.5 0 0.01 0.0 0 0 0 0.0 0
53 1 -5.5 1.5 0.0 0 0.01 0.0 0 0 0 0.0 0
54 1 -6.0 1.0 0.5 0 0.01 0.0 0 0 0 0.0 0
55 1 -6.0 2.0 -0.5 0 0.01 0.0 0 0 0 0.0 0
56 1 -5.5 2.5 0.0 0 0.01 0.0 0 0 0 0.0 0
57 1 -6.0 2.0 0.5 0 0.01 0.0 0 0 0 0.0 0
58 1 -6.0 3.0 -0.5 0 0.01 0.0 0 0 0 0.0 0
59 1 -5.5 3.5 0.0 0 0.01 0.0 0 0 0 0.0 0
60 1 -6.0 3.0 0.5 0 0.01 0.0 0 0 0 0.0 0
61 1 -6.0 4.0 -0.5 0 0.01 0.0 0 0 0 0.0 0
62 1 -5.5 4.5 0.0 0 0.01 0.0 0 0 0 0.0 0
63 1 -6.0 4.0 0.5 0 0.01 0.0 0 0 0 0.0 0
64 1 -6.0 5.0 -0.5 0 0.01 0.0 0 0 0 0.0 0
65 1 -5.5 5.5 0.0 0 0.01 0.0 0 0 0 0.0 0
66 1 -6.0 5.0 0.5 0 0.01 0.0 0 0 0 0.0 0
67 1 -4.5 -6.5 0.0 0 0.01 0.0 0 0 0 0.0 0
68 1 -5.0 -6.0 -0.5 0 0.01 0.0 0 0 0 0.0 0
69 1 -4.5 -5.5 0.0 0 0.01 0.0 0 0 0 0.0 0
70 1 -5.0 -6.0 0.5 0 0.01 0.0 0 0 0 0.0 0
71 1 -5.0 -5.0 -0.5 0 0.01 0.0 0 0 0 0.0 0
72 1 -4.5 -4.5 0.0 0 0.01 0.0 0 0 0 0.0 0
73 1 -5.0 -5.0 0.5 0 0.01 0.0 0 0 0 0.0 0
74 1 -5.0 -4.0 -0.5 0 0.01 0.0 0 0 0 0.0 0
75 1 -4.5 -3.5 0.0 0 0.01 0.0 0 0 0 0.0 0
76 1 -5.0 -4.0 0.5 0 0.01 0.0 0 0 0 0.0 0
77 1 -5.0 -3.0 -0.5 0 0.01 0.0 0 0 0 0.0 0
78 1 -4.5 -2.5 0.0 0 0.01 0.0 0 0 0 0.0 0
79 1 -5.0 -3.0 0.5 0 0.01 0.0 0 0 0 0.0 0
80 1 -5.0 -2.0 -0.5 0 0.01 0.0 0 0 0 0.0 0
81 1 -4.5 -1.5 0.0 0 0.01 0.0 0 0 0 0.0 0
82 1 -5.0 -2.0 0.5 0 0.01 0.0 0 0 0 0.0 0
83 1 -5.0 -1.0 -0.5 0 0.01 0.0 0 0 0 0.0 0
84 1 -4.5 -0.5 0.0 0 0.01 0.0 0 0 0 0.0 0
85 1 -5.0 -1.0 0.5 0 0.01 0.0 0 0 0 0.0 0
86 1 -5.0 0.0 -0.5 0 0.01 0.0 0 0 0 0.0 0
87 1 -4.5 0.5 0.0 0 0.01 0.0 0 0 0 0.0 0
88 1 -5.0 0.0 0.5 0 0.01 0.0 0 0 0 0.0 0
89 1 -5.0 1.0 -0.5 0 0.01 0.0 0 0 0 0.0 0
90 1 -4.5 1.5 0.0 0 0.01 0.0 0 0 0 0.0 0
91 1 -5.0 1.0 0.5 0 0.01 0.0 0 0 0 0.0 0
92 1 -5.0 2.0 -0.5 0 0.01 0.0 0 0 0 0.0 0
93 1 -4.5 2.5 0.0 0 0.01 0.0 0 0 0 0.0 0
94 1 -5.0 2.0 0.5 0 0.01 0.0 0 0 0 0.0 0
95 1 -5.0 3.0 -0.5 0 0.01 0.0 0 0 0 0.0 0
96 1 -4.5 3.5 0.0 0 0.01 0.0 0 0 0 0.0 0
97 1 -5.0 3.0 0.5 0 0.01 0.0 0 0 0 0.0 0
98 1 -5.0 4.0 -0.5 0 0.01 0.0 0 0 0 0.0 0
99 1 -4.5 4.5 0.0 0 0.01 0.0 0 0 0 0.0 0
100 1 -5.0 4.0 0.5 0 0.01 0.0 0 0 0 0.0 0
101 1 -5.0 5.0 -0.5 0 0.01 0.0 0 0 0 0.0 0
102 1 -4.5 5.5 0.0 0 0.01 0.0 0 0 0 0.0 0
103 1 -5.0 5.0 0.5 0 0.01 0.0 0 0 0 0.0 0
104 1 -5.0 6.0 -0.5 0 0.01 0.0 0 0 0 0.0 0
105 1 -4.5 6.5 0.0 0 0.01 0.0 0 0 0 0.0 0
106 1 -5.0 6.0 0.5 0 0.01 0.0 0 0 0 0.0 0
107 1 -3.5 -6.5 0.0 0 0.01 0.0 0 0 0 0.0 0
108 1 -4.0 -6.0 -0.5 0 0.01 0.0 0 0 0 0.0 0
109 1 -3.5 -5.5 0.0 0 0.01 0.0 0 0 0 0.0 0
110 1 -4.0 -6.0 0.5 0 0.01 0.0 0 0 0 0.0 0
111 1 -4.0 -5.0 -0.5 0 0.01 0.0 0 0 0 0.0 0
112 1 -3.5 -4.5 0.0 0 0.01 0.0 0 0 0 0.0 0
113 1 -4.0 -5.0 0.5 0 0.01 0.0 0 0 0 0.0 0
114 1 -4.0 -4.0 -0.5 0 0.01 0.0 0 0 0 0.0 0
115 1 -3.5 -3.5 0.0 0 0.01 0.0 0 0 0 0.0 0
116 1 -4.0 -4.0 0.5 0 0.01 0.0 0 0 0 0.0 0
117 1 -4.0 -3.0 -0.5 0 0.01 0.0 0 0 0 0.0 0
118 1 -3.5 -2.5 0.0 0 0.01 0.0 0 0 0 0.0 0
119 1 -4.0 -3.0 0.5 0 0.01 0.0 0 0 0 0.0 0
120 1 -4.0 -2.0 -0.5 0 0.01 0.0 0 0 0 0.0 0
121 1 -3.5 -1.5 0.0 0 0.01 0.0 0 0 0 0.0 0
122 1 -4.0 -2.0 0.5 0 0.01 0.0 0 0 0 0.0 0
123 1 -4.0 -1.0 -0.5 0 0.01 0.0 0 0 0 0.0 0
124 1 -3.5 -0.5 0.0 0 0.01 0.0 0 0 0 0.0 0
125 1 -4.0 -1.0 0.5 0 0.01 0.0 0 0 0 0.0 0
126 1 -4.0 0.0 -0.5 0 0.01 0.0 0 0 0 0.0 0
127 1 -3.5 0.5 0.0 0 0.01 0.0 0 0 0 0.0 0
128 1 -4.0 0.0 0.5 0 0.01 0.0 0 0 0 0.0 0
129 1 -4.0 1.0 -0.5 0 0.01 0.0 0 0 0 0.0 0
130 1 -3.5 1.5 0.0 0 0.01 0.0 0 0 0 0.0 0
131 1 -4.0 1.0 0.5 0 0.01 0.0 0 0 0 0.0 0
132 1 -4.0 2.0 -0.5 0 0.01 0.0 0 0 0 0.0 0
133 1 -3.5 2.5 0.0 0 0.01 0.0 0 0 0 0.0 0
134 1 -4.0 2.0 0.5 0 0.01 0.0 0 0 0 0.0 0
135 1 -4.0 3.0 -0.5 0 0.01 0.0 0 0 0 0.0 0
136 1 -3.5 3.5 0.0 0 0.01 0.0 0 0 0 0.0 0
137 1 -4.0 3.0 0.5 0 0.01 0.0 0 0 0 0.0 0
138 1 -4.0 4.0 -0.5 0 0.01 0.0 0 0 0 0.0 0
139 1 -3.5 4.5 0.0 0 0.01 0.0 0 0 0 0.0 0
140 1 -4.0 4.0 0.5 0 0.01 0.0 0 0 0 0.0 0
141 1 -4.0 5.0 -0.5 0 0.01 0.0 0 0 0 0.0 0
142 1 -3.5 5.5 0.0 0 0.01 0.0 0 0 0 0.0 0
143 1 -4.0 5.0 0.5 0 0.01 0.0 0 0 0 0.0 0
144 1 -4.0 6.0 -0.5 0 0.01 0.0 0 0 0 0.0 0
145 1 -3.5 6.5 0.0 0 0.01 0.0 0 0 0 0.0 0
146 1 -4.0 6.0 0.5 0 0.01 0.0 0 0 0 0.0 0
147 1 -2.5 -7.5 0.0 0 0.01 0.0 0 0 0 0.0 0
148 1 -3.0 -7.0 -0.5 0 0.01 0.0 0 0 0 0.0 0
149 1 -2.5 -6.5 0.0 0 0.01 0.0 0 0 0 0.0 0
150 1 -3.0 -7.0 0.5 0 0.01 0.0 0 0 0 0.0 0
151 1 -3.0 -6.0 -0.5 0 0.01 0.0 0 0 0 0.0 0
152 1 -2.5 -5.5 0.0 0 0.01 0.0 0 0 0 0.0 0
153 1 -3.0 -6.0 0.5 0 0.01 0.0 0 0 0 0.0 0
154 1 -3.0 -5.0 -0.5 0 0.01 0.0 0 0 0 0.0 0
155 1 -2.5 -4.5 0.0 0 0.01 0.0 0 0 0 0.0 0
156 1 -3.0 -5.0 0.5 0 0.01 0.0 0 0 0 0.0 0
157 1 -3.0 -4.0 -0.5 0 0.01 0.0 0 0 0 0.0 0
158 1 -2.5 -3.5 0.0 0 0.01 0.0 0 0 0 0.0 0
159 1 -3.0 -4.0 0.5 0 0.01 0.0 0 0 0 0.0 0
160 1 -3.0 -3.0 -0.5 0 0.01 0.0 0 0 0 0.0 0
161 1 -2.5 -2.5 0.0 0 0.01 0.0 0 0 0 0.0 0
162 1 -3.0 -3.0 0.5 0 0.01 0.0 0 0 0 0.0 0
163 1 -3.0 3.0 -0.5 0 0.01 0.0 0 0 0 0.0 0
164 1 -2.5 3.5 0.0 0 0.01 0.0 0 0 0 0.0 0
165 1 -3.0 3.0 0.5 0 0.01 0.0 0 0 0 0.0 0
166 1 -3.0 4.0 -0.5 0 0.01 0.0 0 0 0 0.0 0
167 1 -2.5 4.5 0.0 0 0.01 0.0 0 0 0 0.0 0
168 1 -3.0 4.0 0.5 0 0.01 0.0 0 0 0 0.0 0
169 1 -3.0 5.0 -0.5 0 0.01 0.0 0 0 0 0.0 0
170 1 -2.5 5.5 0.0 0 0.01 0.0 0 0 0 0.0 0
171 1 -3.0 5.0 0.5 0 0.01 0.0 0 0 0 0.0 0
172 1 -3.0 6.0 -0.5 0 0.01 0.0 0 0 0 0.0 0
173 1 -2.5 6.5 0.0 0 0.01 0.0 0 0 0 0.0 0
174 1 -3.0 6.0 0.5 0 0.01 0.0 0 0 0 0.0 0
175 1 -3.0 7.0 -0.5 0 0.01 0.0 0 0 0 0.0 0
176 1 -2.5 7.5 0.0 0 0.01 0.0 0 0 0 0.0 0
177 1 -3.0 7.0 0.5 0 0.01 0.0 0 0 0 0.0 0
178 1 -1.5 -7.5 0.0 0 0.01 0.0 0 0 0 0.0 0
179 1 -2.0 -7.0 -0.5 0 0.01 0.0 0 0 0 0.0 0
180 1 -1.5 -6.5 0.0 0 0.01 0.0 0 0 0 0.0 0
181 1 -2.0 -7.0 0.5 0 0.01 0.0 0 0 0 0.0 0
182 1 -2.0 -6.0 -0.5 0 0.01 0.0 0 0 0 0.0 0
183 1 -1.5 -5.5 0.0 0 0.01 0.0 0 0 0 0.0 0
184 1 -2.0 -6.0 0.5 0 0.01 0.0 0 0 0 0.0 0
185 1 -2.0 -5.0 -0.5 0 0.01 0.0 0 0 0 0.0 0
186 1 -1.5 -4.5 0.0 0 0.01 0.0 0 0 0 0.0 0
187 1 -2.0 -5.0 0.5 0 0.01 0.0 0 0 0 0.0 0
188 1 -2.0 -4.0 -0.5 0 0.01 0.0 0 0 0 0.0 0
189 1 -1.5 -3.5 0.0 0 0.01 0.0 0 0 0 0.0 0
190 1 -2.0 -4.0 0.5 0 0.01 0.0 0 0 0 0.0 0
191 1 -2.0 4.0 -0.5 0 0.01 0.0 0 0 0 0.0 0
192 1 -1.5 4.5 0.0 0 0.01 0.0 0 0 0 0.0 0
193 1 -2.0 4.0 0.5 0 0.01 0.0 0 0 0 0.0 0
194 1 -2.0 5.0 -0.5 0 0.01 0.0 0 0 0 0.0 0
195 1 -1.5 5.5 0.0 0 0.01 0.0 0 0 0 0.0 0
196 1 -2.0 5.0 0.5 0 0.01 0.0 0 0 0 0.0 0
197 1 -2.0 6.0 -0.5 0 0.01 0.0 0 0 0 0.0 0
198 1 -1.5 6.5 0.0 0 0.01 0.0 0 0 0 0.0 0
199 1 -2.0 6.0 0.5 0 0.01 0.0 0 0 0 0.0 0
200 1 -2.0 7.0 -0.5 0 0.01 0.0 0 0 0 0.0 0
201 1 -1.5 7.5 0.0 0 0.01 0.0 0 0 0 0.0 0
202 1 -2.0 7.0 0.5 0 0.01 0.0 0 0 0 0.0 0
203 1 -0.5 -7.5 0.0 0 0.01 0.0 0 0 0 0.0 0
204 1 -1.0 -7.0 -0.5 0 0.01 0.0 0 0 0 0.0 0
205 1 -0.5 -6.5 0.0 0 0.01 0.0 0 0 0 0.0 0
206 1 -1.0 -7.0 0.5 0 0.01 0.0 0 0 0 0.0 0
207 1 -1.0 -6.0 -0.5 0 0.01 0.0 0 0 0 0.0 0
208 1 -0.5 -5.5 0.0 0 0.01 0.0 0 0 0 0.0 0
209 1 -1.0 -6.0 0.5 0 0.01 0.0 0 0 0 0.0 0
210 1 -1.0 -5.0 -0.5 0 0.01 0.0 0 0 0 0.0 0
211 1 -0.5 -4.5 0.0 0 0.01 0.0 0 0 0 0.0 0
212 1 -1.0 -5.0 0.5 0 0.01 0.0 0 0 0 0.0 0
213 1 -1.0 -4.0 -0.5 0 0.01 0.0 0 0 0 0.0 0
214 1 -0.5 -3.5 0.0 0 0.01 0.0 0 0 0 0.0 0
215 1 -1.0 -4.0 0.5 0 0.01 0.0 0 0 0 0.0 0
216 1 -1.0 4.0 -0.5 0 0.01 0.0 0 0 0 0.0 0
217 1 -0.5 4.5 0.0 0 0.01 0.0 0 0 0 0.0 0
218 1 -1.0 4.0 0.5 0 0.01 0.0 0 0 0 0.0 0
219 1 -1.0 5.0 -0.5 0 0.01 0.0 0 0 0 0.0 0
220 1 -0.5 5.5 0.0 0 0.01 0.0 0 0 0 0.0 0
221 1 -1.0 5.0 0.5 0 0.01 0.0 0 0 0 0.0 0
222 1 -1.0 6.0 -0.5 0 0.01 0.0 0 0 0 0.0 0
223 1 -0.5 6.5 0.0 0 0.01 0.0 0 0 0 0.0 0
224 1 -1.0 6.0 0.5 0 0.01 0.0 0 0 0 0.0 0
225 1 -1.0 7.0 -0.5 0 0.01 0.0 0 0 0 0.0 0
226 1 -0.5 7.5 0.0 0 0.01 0.0 0 0 0 0.0 0
227 1 -1.0 7.0 0.5 0 0.01 0.0 0 0 0 0.0 0
228 1 0.0 -8.0 -0.5 0 0.01 0.0 0 0 0 0.0 0
229 1 0.5 -7.5 0.0 0 0.01 0.0 0 0 0 0.0 0
230 1 0.0 -8.0 0.5 0 0.01 0.0 0 0 0 0.0 0
231 1 0.0 -7.0 -0.5 0 0.01 0.0 0 0 0 0.0 0
232 1 0.5 -6.5 0.0 0 0.01 0.0 0 0 0 0.0 0
233 1 0.0 -7.0 0.5 0 0.01 0.0 0 0 0 0.0 0
234 1 0.0 -6.0 -0.5 0 0.01 0.0 0 0 0 0.0 0
235 1 0.5 -5.5 0.0 0 0.01 0.0 0 0 0 0.0 0
236 1 0.0 -6.0 0.5 0 0.01 0.0 0 0 0 0.0 0
237 1 0.0 -5.0 -0.5 0 0.01 0.0 0 0 0 0.0 0
238 1 0.5 -4.5 0.0 0 0.01 0.0 0 0 0 0.0 0
239 1 0.0 -5.0 0.5 0 0.01 0.0 0 0 0 0.0 0
240 1 0.0 -4.0 -0.5 0 0.01 0.0 0 0 0 0.0 0
241 1 0.5 -3.5 0.0 0 0.01 0.0 0 0 0 0.0 0
242 1 0.0 -4.0 0.5 0 0.01 0.0 0 0 0 0.0 0
243 1 0.0 4.0 -0.5 0 0.01 0.0 0 0 0 0.0 0
244 1 0.5 4.5 0.0 0 0.01 0.0 0 0 0 0.0 0
245 1 0.0 4.0 0.5 0 0.01 0.0 0 0 0 0.0 0
246 1 0.0 5.0 -0.5 0 0.01 0.0 0 0 0 0.0 0
247 1 0.5 5.5 0.0 0 0.01 0.0 0 0 0 0.0 0
248 1 0.0 5.0 0.5 0 0.01 0.0 0 0 0 0.0 0
249 1 0.0 6.0 -0.5 0 0.01 0.0 0 0 0 0.0 0
250 1 0.5 6.5 0.0 0 0.01 0.0 0 0 0 0.0 0
251 1 0.0 6.0 0.5 0 0.01 0.0 0 0 0 0.0 0
252 1 0.0 7.0 -0.5 0 0.01 0.0 0 0 0 0.0 0
253 1 0.5 7.5 0.0 0 0.01 0.0 0 0 0 0.0 0
254 1 0.0 7.0 0.5 0 0.01 0.0 0 0 0 0.0 0
255 1 0.0 8.0 -0.5 0 0.01 0.0 0 0 0 0.0 0
256 1 0.0 8.0 0.5 0 0.01 0.0 0 0 0 0.0 0
257 1 1.5 -7.5 0.0 0 0.01 0.0 0 0 0 0.0 0
258 1 1.0 -7.0 -0.5 0 0.01 0.0 0 0 0 0.0 0
259 1 1.5 -6.5 0.0 0 0.01 0.0 0 0 0 0.0 0
260 1 1.0 -7.0 0.5 0 0.01 0.0 0 0 0 0.0 0
261 1 1.0 -6.0 -0.5 0 0.01 0.0 0 0 0 0.0 0
262 1 1.5 -5.5 0.0 0 0.01 0.0 0 0 0 0.0 0
263 1 1.0 -6.0 0.5 0 0.01 0.0 0 0 0 0.0 0
264 1 1.0 -5.0 -0.5 0 0.01 0.0 0 0 0 0.0 0
265 1 1.5 -4.5 0.0 0 0.01 0.0 0 0 0 0.0 0
266 1 1.0 -5.0 0.5 0 0.01 0.0 0 0 0 0.0 0
267 1 1.0 -4.0 -0.5 0 0.01 0.0 0 0 0 0.0 0
268 1 1.5 -3.5 0.0 0 0.01 0.0 0 0 0 0.0 0
269 1 1.0 -4.0 0.5 0 0.01 0.0 0 0 0 0.0 0
270 1 1.0 4.0 -0.5 0 0.01 0.0 0 0 0 0.0 0
271 1 1.5 4.5 0.0 0 0.01 0.0 0 0 0 0.0 0
272 1 1.0 4.0 0.5 0 0.01 0.0 0 0 0 0.0 0
273 1 1.0 5.0 -0.5 0 0.01 0.0 0 0 0 0.0 0
274 1 1.5 5.5 0.0 0 0.01 0.0 0 0 0 0.0 0
275 1 1.0 5.0 0.5 0 0.01 0.0 0 0 0 0.0 0
276 1 1.0 6.0 -0.5 0 0.01 0.0 0 0 0 0.0 0
277 1 1.5 6.5 0.0 0 0.01 0.0 0 0 0 0.0 0
278 1 1.0 6.0 0.5 0 0.01 0.0 0 0 0 0.0 0
279 1 1.0 7.0 -0.5 0 0.01 0.0 0 0 0 0.0 0
280 1 1.5 7.5 0.0 0 0.01 0.0 0 0 0 0.0 0
281 1 1.0 7.0 0.5 0 0.01 0.0 0 0 0 0.0 0
282 1 2.5 -7.5 0.0 0 0.01 0.0 0 0 0 0.0 0
283 1 2.0 -7.0 -0.5 0 0.01 0.0 0 0 0 0.0 0
284 1 2.5 -6.5 0.0 0 0.01 0.0 0 0 0 0.0 0
285 1 2.0 -7.0 0.5 0 0.01 0.0 0 0 0 0.0 0
286 1 2.0 -6.0 -0.5 0 0.01 0.0 0 0 0 0.0 0
287 1 2.5 -5.5 0.0 0 0.01 0.0 0 0 0 0.0 0
288 1 2.0 -6.0 0.5 0 0.01 0.0 0 0 0 0.0 0
289 1 2.0 -5.0 -0.5 0 0.01 0.0 0 0 0 0.0 0
290 1 2.5 -4.5 0.0 0 0.01 0.0 0 0 0 0.0 0
291 1 2.0 -5.0 0.5 0 0.01 0.0 0 0 0 0.0 0
292 1 2.0 -4.0 -0.5 0 0.01 0.0 0 0 0 0.0 0
293 1 2.5 -3.5 0.0 0 0.01 0.0 0 0 0 0.0 0
294 1 2.0 -4.0 0.5 0 0.01 0.0 0 0 0 0.0 0
295 1 2.0 4.0 -0.5 0 0.01 0.0 0 0 0 0.0 0
296 1 2.5 4.5 0.0 0 0.01 0.0 0 0 0 0.0 0
297 1 2.0 4.0 0.5 0 0.01 0.0 0 0 0 0.0 0
298 1 2.0 5.0 -0.5 0 0.01 0.0 0 0 0 0.0 0
299 1 2.5 5.5 0.0 0 0.01 0.0 0 0 0 0.0 0
300 1 2.0 5.0 0.5 0 0.01 0.0 0 0 0 0.0 0
301 1 2.0 6.0 -0.5 0 0.01 0.0 0 0 0 0.0 0
302 1 2.5 6.5 0.0 0 0.01 0.0 0 0 0 0.0 0
303 1 2.0 6.0 0.5 0 0.01 0.0 0 0 0 0.0 0
304 1 2.0 7.0 -0.5 0 0.01 0.0 0 0 0 0.0 0
305 1 2.5 7.5 0.0 0 0.01 0.0 0 0 0 0.0 0
306 1 2.0 7.0 0.5 0 0.01 0.0 0 0 0 0.0 0
307 1 3.0 -7.0 -0.5 0 0.01 0.0 0 0 0 0.0 0
308 1 3.5 -6.5 0.0 0 0.01 0.0 0 0 0 0.0 0
309 1 3.0 -7.0 0.5 0 0.01 0.0 0 0 0 0.0 0
310 1 3.0 -6.0 -0.5 0 0.01 0.0 0 0 0 0.0 0
311 1 3.5 -5.5 0.0 0 0.01 0.0 0 0 0 0.0 0
312 1 3.0 -6.0 0.5 0 0.01 0.0 0 0 0 0.0 0
313 1 3.0 -5.0 -0.5 0 0.01 0.0 0 0 0 0.0 0
314 1 3.5 -4.5 0.0 0 0.01 0.0 0 0 0 0.0 0
315 1 3.0 -5.0 0.5 0 0.01 0.0 0 0 0 0.0 0
316 1 3.0 -4.0 -0.5 0 0.01 0.0 0 0 0 0.0 0
317 1 3.5 -3.5 0.0 0 0.01 0.0 0 0 0 0.0 0
318 1 3.0 -4.0 0.5 0 0.01 0.0 0 0 0 0.0 0
319 1 3.0 -3.0 -0.5 0 0.01 0.0 0 0 0 0.0 0
320 1 3.5 -2.5 0.0 0 0.01 0.0 0 0 0 0.0 0
321 1 3.0 -3.0 0.5 0 0.01 0.0 0 0 0 0.0 0
322 1 3.0 3.0 -0.5 0 0.01 0.0 0 0 0 0.0 0
323 1 3.5 3.5 0.0 0 0.01 0.0 0 0 0 0.0 0
324 1 3.0 3.0 0.5 0 0.01 0.0 0 0 0 0.0 0
325 1 3.0 4.0 -0.5 0 0.01 0.0 0 0 0 0.0 0
326 1 3.5 4.5 0.0 0 0.01 0.0 0 0 0 0.0 0
327 1 3.0 4.0 0.5 0 0.01 0.0 0 0 0 0.0 0
328 1 3.0 5.0 -0.5 0 0.01 0.0 0 0 0 0.0 0
329 1 3.5 5.5 0.0 0 0.01 0.0 0 0 0 0.0 0
330 1 3.0 5.0 0.5 0 0.01 0.0 0 0 0 0.0 0
331 1 3.0 6.0 -0.5 0 0.01 0.0 0 0 0 0.0 0
332 1 3.5 6.5 0.0 0 0.01 0.0 0 0 0 0.0 0
333 1 3.0 6.0 0.5 0 0.01 0.0 0 0 0 0.0 0
334 1 3.0 7.0 -0.5 0 0.01 0.0 0 0 0 0.0 0
335 1 3.0 7.0 0.5 0 0.01 0.0 0 0 0 0.0 0
336 1 4.5 -6.5 0.0 0 0.01 0.0 0 0 0 0.0 0
337 1 4.0 -6.0 -0.5 0 0.01 0.0 0 0 0 0.0 0
338 1 4.5 -5.5 0.0 0 0.01 0.0 0 0 0 0.0 0
339 1 4.0 -6.0 0.5 0 0.01 0.0 0 0 0 0.0 0
340 1 4.0 -5.0 -0.5 0 0.01 0.0 0 0 0 0.0 0
341 1 4.5 -4.5 0.0 0 0.01 0.0 0 0 0 0.0 0
342 1 4.0 -5.0 0.5 0 0.01 0.0 0 0 0 0.0 0
343 1 4.0 -4.0 -0.5 0 0.01 0.0 0 0 0 0.0 0
344 1 4.5 -3.5 0.0 0 0.01 0.0 0 0 0 0.0 0
345 1 4.0 -4.0 0.5 0 0.01 0.0 0 0 0 0.0 0
346 1 4.0 -3.0 -0.5 0 0.01 0.0 0 0 0 0.0 0
347 1 4.5 -2.5 0.0 0 0.01 0.0 0 0 0 0.0 0
348 1 4.0 -3.0 0.5 0 0.01 0.0 0 0 0 0.0 0
349 1 4.0 -2.0 -0.5 0 0.01 0.0 0 0 0 0.0 0
350 1 4.5 -1.5 0.0 0 0.01 0.0 0 0 0 0.0 0
351 1 4.0 -2.0 0.5 0 0.01 0.0 0 0 0 0.0 0
352 1 4.0 -1.0 -0.5 0 0.01 0.0 0 0 0 0.0 0
353 1 4.5 -0.5 0.0 0 0.01 0.0 0 0 0 0.0 0
354 1 4.0 -1.0 0.5 0 0.01 0.0 0 0 0 0.0 0
355 1 4.0 0.0 -0.5 0 0.01 0.0 0 0 0 0.0 0
356 1 4.5 0.5 0.0 0 0.01 0.0 0 0 0 0.0 0
357 1 4.0 0.0 0.5 0 0.01 0.0 0 0 0 0.0 0
358 1 4.0 1.0 -0.5 0 0.01 0.0 0 0 0 0.0 0
359 1 4.5 1.5 0.0 0 0.01 0.0 0 0 0 0.0 0
360 1 4.0 1.0 0.5 0 0.01 0.0 0 0 0 0.0 0
361 1 4.0 2.0 -0.5 0 0.01 0.0 0 0 0 0.0 0
362 1 4.5 2.5 0.0 0 0.01 0.0 0 0 0 0.0 0
363 1 4.0 2.0 0.5 0 0.01 0.0 0 0 0 0.0 0
364 1 4.0 3.0 -0.5 0 0.01 0.0 0 0 0 0.0 0
365 1 4.5 3.5 0.0 0 0.01 0.0 0 0 0 0.0 0
366 1 4.0 3.0 0.5 0 0.01 0.0 0 0 0 0.0 0
367 1 4.0 4.0 -0.5 0 0.01 0.0 0 0 0 0.0 0
368 1 4.5 4.5 0.0 0 0.01 0.0 0 0 0 0.0 0
369 1 4.0 4.0 0.5 0 0.01 0.0 0 0 0 0.0 0
370 1 4.0 5.0 -0.5 0 0.01 0.0 0 0 0 0.0 0
371 1 4.5 5.5 0.0 0 0.01 0.0 0 0 0 0.0 0
372 1 4.0 5.0 0.5 0 0.01 0.0 0 0 0 0.0 0
373 1 4.0 6.0 -0.5 0 0.01 0.0 0 0 0 0.0 0
374 1 4.5 6.5 0.0 0 0.01 0.0 0 0 0 0.0 0
375 1 4.0 6.0 0.5 0 0.01 0.0 0 0 0 0.0 0
376 1 5.0 -6.0 -0.5 0 0.01 0.0 0 0 0 0.0 0
377 1 5.5 -5.5 0.0 0 0.01 0.0 0 0 0 0.0 0
378 1 5.0 -6.0 0.5 0 0.01 0.0 0 0 0 0.0 0
379 1 5.0 -5.0 -0.5 0 0.01 0.0 0 0 0 0.0 0
380 1 5.5 -4.5 0.0 0 0.01 0.0 0 0 0 0.0 0
381 1 5.0 -5.0 0.5 0 0.01 0.0 0 0 0 0.0 0
382 1 5.0 -4.0 -0.5 0 0.01 0.0 0 0 0 0.0 0
383 1 5.5 -3.5 0.0 0 0.01 0.0 0 0 0 0.0 0
384 1 5.0 -4.0 0.5 0 0.01 0.0 0 0 0 0.0 0
385 1 5.0 -3.0 -0.5 0 0.01 0.0 0 0 0 0.0 0
386 1 5.5 -2.5 0.0 0 0.01 0.0 0 0 0 0.0 0
387 1 5.0 -3.0 0.5 0 0.01 0.0 0 0 0 0.0 0
388 1 5.0 -2.0 -0.5 0 0.01 0.0 0 0 0 0.0 0
389 1 5.5 -1.5 0.0 0 0.01 0.0 0 0 0 0.0 0
390 1 5.0 -2.0 0.5 0 0.01 0.0 0 0 0 0.0 0
391 1 5.0 -1.0 -0.5 0 0.01 0.0 0 0 0 0.0 0
392 1 5.5 -0.5 0.0 0 0.01 0.0 0 0 0 0.0 0
393 1 5.0 -1.0 0.5 0 0.01 0.0 0 0 0 0.0 0
394 1 5.0 0.0 -0.5 0 0.01 0.0 0 0 0 0.0 0
395 1 5.5 0.5 0.0 0 0.01 0.0 0 0 0 0.0 0
396 1 5.0 0.0 0.5 0 0.01 0.0 0 0 0 0.0 0
397 1 5.0 1.0 -0.5 0 0.01 0.0 0 0 0 0.0 0
398 1 5.5 1.5 0.0 0 0.01 0.0 0 0 0 0.0 0
399 1 5.0 1.0 0.5 0 0.01 0.0 0 0 0 0.0 0
400 1 5.0 2.0 -0.5 0 0.01 0.0 0 0 0 0.0 0
401 1 5.5 2.5 0.0 0 0.01 0.0 0 0 0 0.0 0
402 1 5.0 2.0 0.5 0 0.01 0.0 0 0 0 0.0 0
403 1 5.0 3.0 -0.5 0 0.01 0.0 0 0 0 0.0 0
404 1 5.5 3.5 0.0 0 0.01 0.0 0 0 0 0.0 0
405 1 5.0 3.0 0.5 0 0.01 0.0 0 0 0 0.0 0
406 1 5.0 4.0 -0.5 0 0.01 0.0 0 0 0 0.0 0
407 1 5.5 4.5 0.0 0 0.01 0.0 0 0 0 0.0 0
408 1 5.0 4.0 0.5 0 0.01 0.0 0 0 0 0.0 0
409 1 5.0 5.0 -0.5 0 0.01 0.0 0 0 0 0.0 0
410 1 5.5 5.5 0.0 0 0.01 0.0 0 0 0 0.0 0
411 1 5.0 5.0 0.5 0 0.01 0.0 0 0 0 0.0 0
412 1 5.0 6.0 -0.5 0 0.01 0.0 0 0 0 0.0 0
413 1 5.0 6.0 0.5 0 0.01 0.0 0 0 0 0.0 0
414 1 6.0 -5.0 -0.5 0 0.01 0.0 0 0 0 0.0 0
415 1 6.5 -4.5 0.0 0 0.01 0.0 0 0 0 0.0 0
416 1 6.0 -5.0 0.5 0 0.01 0.0 0 0 0 0.0 0
417 1 6.0 -4.0 -0.5 0 0.01 0.0 0 0 0 0.0 0
418 1 6.5 -3.5 0.0 0 0.01 0.0 0 0 0 0.0 0
419 1 6.0 -4.0 0.5 0 0.01 0.0 0 0 0 0.0 0
420 1 6.0 -3.0 -0.5 0 0.01 0.0 0 0 0 0.0 0
421 1 6.5 -2.5 0.0 0 0.01 0.0 0 0 0 0.0 0
422 1 6.0 -3.0 0.5 0 0.01 0.0 0 0 0 0.0 0
423 1 6.0 -2.0 -0.5 0 0.01 0.0 0 0 0 0.0 0
424 1 6.5 -1.5 0.0 0 0.01 0.0 0 0 0 0.0 0
425 1 6.0 -2.0 0.5 0 0.01 0.0 0 0 0 0.0 0
426 1 6.0 -1.0 -0.5 0 0.01 0.0 0 0 0 0.0 0
427 1 6.5 -0.5 0.0 0 0.01 0.0 0 0 0 0.0 0
428 1 6.0 -1.0 0.5 0 0.01 0.0 0 0 0 0.0 0
429 1 6.0 0.0 -0.5 0 0.01 0.0 0 0 0 0.0 0
430 1 6.5 0.5 0.0 0 0.01 0.0 0 0 0 0.0 0
431 1 6.0 0.0 0.5 0 0.01 0.0 0 0 0 0.0 0
432 1 6.0 1.0 -0.5 0 0.01 0.0 0 0 0 0.0 0
433 1 6.5 1.5 0.0 0 0.01 0.0 0 0 0 0.0 0
434 1 6.0 1.0 0.5 0 0.01 0.0 0 0 0 0.0 0
435 1 6.0 2.0 -0.5 0 0.01 0.0 0 0 0 0.0 0
436 1 6.5 2.5 0.0 0 0.01 0.0 0 0 0 0.0 0
437 1 6.0 2.0 0.5 0 0.01 0.0 0 0 0 0.0 0
438 1 6.0 3.0 -0.5 0 0.01 0.0 0 0 0 0.0 0
439 1 6.5 3.5 0.0 0 0.01 0.0 0 0 0 0.0 0
440 1 6.0 3.0 0.5 0 0.01 0.0 0 0 0 0.0 0
441 1 6.0 4.0 -0.5 0 0.01 0.0 0 0 0 0.0 0
442 1 6.5 4.5 0.0 0 0.01 0.0 0 0 0 0.0 0
443 1 6.0 4.0 0.5 0 0.01 0.0 0 0 0 0.0 0
444 1 6.0 5.0 -0.5 0 0.01 0.0 0 0 0 0.0 0
445 1 6.0 5.0 0.5 0 0.01 0.0 0 0 0 0.0 0
446 1 7.0 -3.0 -0.5 0 0.01 0.0 0 0 0 0.0 0
447 1 7.5 -2.5 0.0 0 0.01 0.0 0 0 0 0.0 0
448 1 7.0 -3.0 0.5 0 0.01 0.0 0 0 0 0.0 0
449 1 7.0 -2.0 -0.5 0 0.01 0.0 0 0 0 0.0 0
450 1 7.5 -1.5 0.0 0 0.01 0.0 0 0 0 0.0 0
451 1 7.0 -2.0 0.5 0 0.01 0.0 0 0 0 0.0 0
452 1 7.0 -1.0 -0.5 0 0.01 0.0 0 0 0 0.0 0
453 1 7.5 -0.5 0.0 0 0.01 0.0 0 0 0 0.0 0
454 1 7.0 -1.0 0.5 0 0.01 0.0 0 0 0 0.0 0
455 1 7.0 0.0 -0.5 0 0.01 0.0 0 0 0 0.0 0
456 1 7.5 0.5 0.0 0 0.01 0.0 0 0 0 0.0 0
457 1 7.0 0.0 0.5 0 0.01 0.0 0 0 0 0.0 0
458 1 7.0 1.0 -0.5 0 0.01 0.0 0 0 0 0.0 0
459 1 7.5 1.5 0.0 0 0.01 0.0 0 0 0 0.0 0
460 1 7.0 1.0 0.5 0 0.01 0.0 0 0 0 0.0 0
461 1 7.0 2.0 -0.5 0 0.01 0.0 0 0 0 0.0 0
462 1 7.5 2.5 0.0 0 0.01 0.0 0 0 0 0.0 0
463 1 7.0 2.0 0.5 0 0.01 0.0 0 0 0 0.0 0
464 1 7.0 3.0 -0.5 0 0.01 0.0 0 0 0 0.0 0
465 1 7.0 3.0 0.5 0 0.01 0.0 0 0 0 0.0 0
466 1 8.0 0.0 -0.5 0 0.01 0.0 0 0 0 0.0 0
467 1 8.0 0.0 0.5 0 0.01 0.0 0 0 0 0.0 0

Bonds

1 1 267 269
2 1 9 10
3 2 41 42
4 1 12 15
5 1 59 96
6 2 271 275
7 2 344 345
8 2 62 101
9 1 41 78
10 2 74 75
11 2 421 448
12 2 173 197
13 1 45 48
14 1 333 335
15 2 84 125
16 2 377 378
17 2 195 221
18 2 75 76
19 2 155 185
20 2 147 181
21 2 107 108
22 1 325 367
23 2 365 403
24 1 406 441
25 2 398 437
26 2 436 463
27 2 410 411
28 2 96 135
29 1 97 100
30 2 395 431
31 2 108 109
32 1 367 369
33 1 130 133
34 2 141 142
35 2 421 425
36 1 273 298
37 1 400 402
38 1 432 434
39 1 444 445
40 1 163 166
41 2 262 288
42 2 433 435
43 2 436 440
44 2 284 312
45 1 196 199
46 2 207 208
47 2 178 181
48 2 18 49
49 2 317 345
50 1 29 58
51 1 229 232
52 2 208 209
53 2 240 241
54 1 273 275
55 1 211 214
56 1 262 265
57 2 241 242
58 1 244 247
59 1 4 6
60 1 295 298
61 2 274 275
62 1 33 69
63 2 65 101
64 1 37 39
65 1 328 331
66 2 180 204
67 2 307 308
68 2 439 464
69 2 59 63
70 1 150 181
71 1 169 194
72 2 41 45
73 1 428 454
74 2 114 115
75 2 380 414
76 2 340 341
77 2 401 437
78 1 329 332
79 1 373 375
80 1 91 131
81 1 151 182
82 1 3 18
83 2 350 391
84 1 170 195
85 1 361 400
86 1 362 365
87 2 173 200
88 2 353 396
89 2 147 148
90 2 235 261
91 1 406 408
92 1 92 132
93 2 84 128
94 1 224 251
95 1 104 106
96 2 203 228
97 2 136 138
98 2 195 224
99 2 268 294
100 1 395 398
101 2 180 181
102 2 439 441
103 2 158 162
104 2 217 248
105 1 169 171
106 1 428 431
107 2 280 304
108 2 250 281
109 2 170 172
110 1 269 294
111 2 214 215
112 2 173 177
113 2 21 49
114 2 24 54
115 1 203 205
116 2 247 248
117 1 10 12
118 2 280 281
119 2 317 348
120 1 43 45
121 1 302 305
122 2 313 314
123 2 11 12
124 2 323 364
125 1 434 460
126 1 61 98
127 2 314 315
128 2 53 94
129 2 346 347
130 2 33 36
131 2 44 45
132 1 176 201
133 2 356 397
134 1 435 461
135 1 368 371
136 2 427 457
137 2 347 348
138 2 379 380
139 2 65 104
140 2 77 78
141 1 336 338
142 1 368 407
143 1 369 372
144 1 408 443
145 1 401 404
146 2 87 128
147 2 380 381
148 1 99 102
149 2 198 224
150 1 231 258
151 2 401 440
152 1 402 405
153 1 434 437
154 2 220 248
155 2 112 157
156 1 132 135
157 1 464 465
158 1 275 300
159 2 235 264
160 1 435 438
161 2 446 447
162 2 253 281
163 1 165 168
164 2 180 184
165 1 198 201
166 1 210 212
167 1 31 60
168 1 243 245
169 2 21 52
170 1 34 71
171 2 24 57
172 1 232 235
173 2 17 18
174 1 276 278
175 2 308 310
176 1 35 72
177 2 38 77
178 1 39 42
179 1 265 268
180 2 50 51
181 2 341 343
182 2 359 397
183 1 72 75
184 2 83 84
185 2 430 457
186 2 341 379
187 2 201 225
188 2 93 134
189 1 40 42
190 1 152 183
191 1 5 21
192 2 84 85
193 1 2 15
194 1 153 184
195 2 105 144
196 2 226 254
197 2 205 231
198 1 138 141
199 2 404 440
200 2 117 118
201 2 115 157
202 1 94 134
203 2 107 153
204 2 127 131
205 1 139 142
206 2 238 264
207 1 171 174
208 2 430 434
209 1 441 443
210 2 201 202
211 1 172 175
212 2 271 297
213 2 183 184
214 2 442 444
215 2 293 321
216 1 205 208
217 1 296 326
218 2 216 217
219 1 238 241
220 2 249 250
221 2 27 57
222 2 12 14
223 1 239 242
224 1 271 274
225 2 282 283
226 2 41 77
227 1 272 275
228 2 35 39
229 1 46 48
230 1 337 340
231 1 436 462
232 1 67 107
233 1 355 394
234 2 167 194
235 2 347 390
236 1 159 190
237 2 326 367
238 1 178 203
239 2 367 368
240 1 338 341
241 1 437 463
242 1 370 373
243 2 56 97
244 2 349 350
245 1 100 140
246 2 359 400
247 2 112 114
248 2 400 401
249 1 371 374
250 1 403 406
251 2 382 383
252 2 149 181
253 2 415 417
254 1 233 260
255 2 433 434
256 1 111 154
257 1 404 407
258 1 436 439
259 1 234 261
260 2 167 171
261 1 466 467
262 1 178 180
263 1 437 440
264 2 115 160
265 1 179 181
266 2 211 213
267 2 30 58
268 2 244 246
269 1 455 466
270 2 33 68
271 1 36 73
272 2 289 290
273 2 299 303
274 1 37 74
275 1 41 44
276 2 311 313
277 2 59 98
278 1 344 347
279 2 170 194
280 2 62 103
281 2 350 390
282 1 42 45
283 1 402 437
284 1 74 77
285 2 133 163
286 2 173 199
287 1 206 233
288 1 185 210
289 1 384 419
290 1 377 380
291 2 104 105
292 2 155 187
293 2 362 400
294 1 75 78
295 2 107 110
296 2 86 87
297 2 365 405
298 2 410 413
299 1 117 160
300 2 96 137
301 1 108 111
302 1 140 143
303 2 7 28
304 1 118 161
305 2 170 171
306 1 229 257
307 1 141 144
308 1 173 176
309 2 152 153
310 1 185 187
311 2 203 204
312 1 174 177
313 2 433 437
314 1 25 54
315 1 207 210
316 2 18 51
317 1 43 80
318 2 26 27
319 1 33 35
320 2 176 200
321 2 15 17
322 1 274 277
323 1 327 369
324 2 33 71
325 2 65 103
326 2 44 80
327 2 136 163
328 2 336 337
329 2 368 406
330 2 180 206
331 1 307 310
332 1 87 127
333 1 198 223
334 2 90 132
335 1 69 109
336 1 357 396
337 2 81 83
338 1 114 117
339 1 340 343
340 2 3 20
341 2 350 393
342 1 102 142
343 2 235 263
344 2 147 150
345 1 435 437
346 1 417 419
347 2 136 140
348 1 180 183
349 2 439 443
350 1 265 290
351 2 450 452
352 2 10 37
353 2 277 301
354 2 210 211
355 1 181 184
356 2 280 306
357 2 192 193
358 2 170 174
359 2 243 244
360 2 21 51
361 2 225 226
362 2 232 234
363 2 276 277
364 1 247 250
365 2 265 267
366 2 277 278
367 1 7 8
368 2 50 86
369 2 310 311
370 1 313 316
371 2 40 41
372 1 172 197
373 1 11 14
374 2 164 193
375 1 363 402
376 2 323 366
377 1 55 57
378 2 343 344
379 1 346 349
380 1 44 47
381 1 76 116
382 1 364 403
383 1 404 439
384 2 356 399
385 2 109 113
386 2 376 377
387 1 386 421
388 1 379 382
389 2 65 106
390 1 227 254
391 2 139 141
392 1 77 80
393 1 209 236
394 2 121 123
395 2 409 410
396 1 119 162
397 1 271 296
398 1 242 269
399 1 154 156
400 2 442 443
401 2 112 159
402 1 272 297
403 1 446 449
404 1 27 56
405 1 28 57
406 2 14 15
407 1 45 82
408 2 46 47
409 1 17 20
410 2 308 312
411 2 35 74
412 1 46 83
413 2 47 48
414 2 38 79
415 1 138 166
416 1 50 53
417 2 338 340
418 2 341 345
419 2 80 81
420 2 359 399
421 1 330 372
422 2 371 373
423 1 83 86
424 1 149 180
425 2 415 416
426 2 353 355
427 2 201 227
428 2 152 185
429 2 5 23
430 2 371 409
431 1 411 445
432 1 116 119
433 2 404 406
434 2 2 17
435 2 386 388
436 2 226 256
437 2 205 233
438 2 115 159
439 1 168 171
440 2 179 180
441 2 238 266
442 1 150 153
443 1 438 440
444 2 9 34
445 1 183 186
446 1 234 237
447 2 213 214
448 2 296 328
449 1 216 219
450 2 456 466
451 2 246 247
452 1 249 252
453 2 12 16
454 2 279 280
455 2 311 312
456 2 282 285
457 2 41 79
458 1 432 458
459 2 344 382
460 1 315 318
461 1 155 186
462 2 75 77
463 1 174 199
464 2 145 172
465 1 433 459
466 1 365 404
467 2 436 464
468 1 96 136
469 1 156 187
470 1 175 200
471 2 395 432
472 1 108 110
473 2 167 196
474 1 366 405
475 1 367 370
476 2 90 92
477 2 118 160
478 1 97 137
479 1 141 143
480 1 407 442
481 2 112 116
482 1 211 238
483 1 400 403
484 2 185 186
485 2 415 419
486 2 262 289
487 2 142 144
488 1 433 436
489 1 285 309
490 1 244 271
491 1 175 177
492 1 274 299
493 2 208 210
494 2 299 328
495 2 252 253
496 2 211 215
497 2 30 60
498 2 244 248
499 2 15 16
500 2 274 276
501 2 33 70
502 1 289 292
503 1 180 205
504 1 19 22
505 1 307 309
506 1 339 378
507 2 439 465
508 1 66 103
509 2 319 320
510 2 69 108
511 1 48 85
512 2 49 50
513 2 81 82
514 1 140 168
515 1 181 206
516 2 329 333
517 1 380 415
518 1 340 342
519 1 372 411
520 2 352 353
521 2 59 100
522 2 311 315
523 2 170 196
524 2 102 141
525 2 362 366
526 2 133 165
527 1 373 412
528 1 332 374
529 1 406 409
530 2 385 386
531 2 417 418
532 1 4 20
533 1 203 229
534 2 362 402
535 2 115 116
536 2 395 399
537 2 418 419
538 2 450 451
539 1 137 140
540 2 148 149
541 1 280 305
542 2 407 409
543 1 440 443
544 1 251 278
545 1 170 173
546 1 281 306
547 1 152 155
548 2 203 206
549 2 182 183
550 2 247 249
551 1 306 335
552 1 236 239
553 1 295 325
554 1 313 315
555 1 11 13
556 2 55 56
557 1 26 29
558 2 314 316
559 2 44 46
560 2 176 202
561 2 15 19
562 1 303 306
563 2 386 420
564 2 347 349
565 2 33 73
566 1 157 188
567 1 77 79
568 2 136 165
569 1 110 113
570 2 89 90
571 2 336 339
572 2 121 122
573 2 368 408
574 2 87 129
575 2 380 382
576 1 98 138
577 2 99 103
578 2 198 225
579 2 90 134
580 2 78 80
581 1 158 189
582 2 69 111
583 2 81 85
584 2 154 155
585 1 99 139
586 1 111 113
587 2 3 22
588 2 102 144
589 2 155 156
590 1 414 416
591 1 446 448
592 1 232 259
593 1 144 146
594 2 188 189
595 1 287 311
596 2 447 449
597 2 265 292
598 2 450 454
599 2 10 39
600 1 210 213
601 1 301 331
602 1 243 246
603 1 302 332
604 1 32 62
605 2 232 236
606 1 17 19
607 1 276 279
608 2 35 73
609 2 287 288
610 2 18 20
611 2 265 269
612 2 50 52
613 1 277 280
614 1 309 312
615 2 320 321
616 2 47 83
617 2 139 166
618 1 71 111
619 2 50 88
620 2 430 458
621 1 310 313
622 1 341 380
623 1 342 345
624 2 353 354
625 1 40 43
626 1 72 112
627 2 84 86
628 1 183 208
629 1 342 381
630 1 343 346
631 1 382 417
632 2 2 16
633 2 386 387
634 1 73 76
635 1 105 145
636 1 205 232
637 2 404 441
638 1 117 119
639 1 376 379
640 1 408 411
641 1 6 22
642 2 139 143
643 1 238 265
644 2 118 120
645 2 438 439
646 2 121 125
647 1 409 412
648 1 441 444
649 2 420 421
650 1 239 266
651 2 271 298
652 1 151 153
653 2 183 185
654 2 282 307
655 2 442 445
656 2 453 454
657 2 205 209
658 2 296 327
659 1 216 218
660 2 238 242
661 2 217 219
662 1 249 251
663 2 308 337
664 2 27 58
665 2 250 252
666 1 282 284
667 1 13 16
668 2 24 25
669 1 283 285
670 1 42 79
671 1 14 17
672 1 46 49
673 2 433 458
674 2 377 414
675 1 316 318
676 2 35 76
677 2 67 108
678 1 47 50
679 1 326 368
680 1 79 82
681 2 178 204
682 2 58 59
683 2 90 91
684 2 338 342
685 1 389 424
686 1 349 351
687 2 407 441
688 1 80 83
689 1 112 115
690 2 211 237
691 2 78 122
692 2 371 375
693 1 382 384
694 2 149 182
695 1 415 418
696 2 142 143
697 2 152 187
698 1 113 116
699 2 5 25
700 2 244 270
701 2 124 125
702 2 404 408
703 2 2 19
704 1 448 451
705 2 427 428
706 2 175 176
707 2 274 298
708 2 157 158
709 1 179 182
710 1 30 59
711 1 449 451
712 2 9 36
713 1 12 41
714 1 212 215
715 2 311 337
716 2 223 224
717 1 245 248
718 1 304 334
719 2 296 330
720 1 289 291
721 1 246 249
722 1 278 281
723 1 20 22
724 1 440 465
725 2 64 65
726 1 311 314
727 2 344 348
728 2 323 325
729 2 421 451
730 2 53 55
731 2 332 373
732 1 312 315
733 2 344 384
734 2 377 381
735 2 356 358
736 2 155 188
737 1 74 114
738 1 362 401
739 2 75 79
740 1 86 88
741 2 374 375
742 2 433 461
743 2 365 406
744 1 345 348
745 2 389 391
746 2 96 138
747 2 395 434
748 1 207 234
749 2 407 408
750 1 378 381
751 2 118 162
752 2 229 258
753 1 208 235
754 1 240 267
755 2 407 444