#LAMMPS data file for cubic lattice with middle particle bonds

485 atoms
2099 bonds
1 atom types
2 bond types
-27.0 27.0 xlo xhi
-27.0 27.0 ylo yhi
-2.0 2.0 zlo zhi

Masses

1 1.0

Bond Coeffs

1 0.1 1
2 0.1 0.8660254037844386

Atoms

1 1 -7.5 -0.5 0.0 0 0.01 0.0 0 0 0 0.0 0
2 1 -7.5 0.5 0.0 0 0.01 0.0 0 0 0 0.0 0
3 1 -8.0 1.0 -0.5 0 0.01 0.0 0 0 0 0.0 0
4 1 -7.5 1.5 0.0 0 0.01 0.0 0 0 0 0.0 0
5 1 -8.0 1.0 0.5 0 0.01 0.0 0 0 0 0.0 0
6 1 -8.0 2.0 -0.5 0 0.01 0.0 0 0 0 0.0 0
7 1 -7.5 2.5 0.0 0 0.01 0.0 0 0 0 0.0 0
8 1 -8.0 2.0 0.5 0 0.01 0.0 0 0 0 0.0 0
9 1 -8.0 3.0 -0.5 0 0.01 0.0 0 0 0 0.0 0
10 1 -7.5 3.5 0.0 0 0.01 0.0 0 0 0 0.0 0
11 1 -8.0 3.0 0.5 0 0.01 0.0 0 0 0 0.0 0
12 1 -7.5 4.5 0.0 0 0.01 0.0 0 0 0 0.0 0
13 1 -6.5 -2.5 0.0 0 0.01 0.0 0 0 0 0.0 0
14 1 -7.0 -2.0 -0.5 0 0.01 0.0 0 0 0 0.0 0
15 1 -6.5 -1.5 0.0 0 0.01 0.0 0 0 0 0.0 0
16 1 -7.0 -2.0 0.5 0 0.01 0.0 0 0 0 0.0 0
17 1 -7.0 -1.0 -0.5 0 0.01 0.0 0 0 0 0.0 0
18 1 -6.5 -0.5 0.0 0 0.01 0.0 0 0 0 0.0 0
19 1 -7.0 -1.0 0.5 0 0.01 0.0 0 0 0 0.0 0
20 1 -7.0 0.0 -0.5 0 0.01 0.0 0 0 0 0.0 0
21 1 -6.5 0.5 0.0 0 0.01 0.0 0 0 0 0.0 0
22 1 -7.0 0.0 0.5 0 0.01 0.0 0 0 0 0.0 0
23 1 -7.0 1.0 -0.5 0 0.01 0.0 0 0 0 0.0 0
24 1 -6.5 1.5 0.0 0 0.01 0.0 0 0 0 0.0 0
25 1 -7.0 1.0 0.5 0 0.01 0.0 0 0 0 0.0 0
26 1 -7.0 2.0 -0.5 0 0.01 0.0 0 0 0 0.0 0
27 1 -6.5 2.5 0.0 0 0.01 0.0 0 0 0 0.0 0
28 1 -7.0 2.0 0.5 0 0.01 0.0 0 0 0 0.0 0
29 1 -7.0 3.0 -0.5 0 0.01 0.0 0 0 0 0.0 0
30 1 -6.5 3.5 0.0 0 0.01 0.0 0 0 0 0.0 0
31 1 -7.0 3.0 0.5 0 0.01 0.0 0 0 0 0.0 0
32 1 -7.0 4.0 -0.5 0 0.01 0.0 0 0 0 0.0 0
33 1 -6.5 4.5 0.0 0 0.01 0.0 0 0 0 0.0 0
34 1 -7.0 4.0 0.5 0 0.01 0.0 0 0 0 0.0 0
35 1 -7.0 5.0 -0.5 0 0.01 0.0 0 0 0 0.0 0
36 1 -6.5 5.5 0.0 0 0.01 0.0 0 0 0 0.0 0
37 1 -7.0 5.0 0.5 0 0.01 0.0 0 0 0 0.0 0
38 1 -7.0 6.0 -0.5 0 0.01 0.0 0 0 0 0.0 0
39 1 -6.5 6.5 0.0 0 0.01 0.0 0 0 0 0.0 0
40 1 -7.0 6.0 0.5 0 0.01 0.0 0 0 0 0.0 0
41 1 -5.5 -3.5 0.0 0 0.01 0.0 0 0 0 0.0 0
42 1 -6.0 -3.0 -0.5 0 0.01 0.0 0 0 0 0.0 0
43 1 -5.5 -2.5 0.0 0 0.01 0.0 0 0 0 0.0 0
44 1 -6.0 -3.0 0.5 0 0.01 0.0 0 0 0 0.0 0
45 1 -6.0 -2.0 -0.5 0 0.01 0.0 0 0 0 0.0 0
46 1 -5.5 -1.5 0.0 0 0.01 0.0 0 0 0 0.0 0
47 1 -6.0 -2.0 0.5 0 0.01 0.0 0 0 0 0.0 0
48 1 -6.0 -1.0 -0.5 0 0.01 0.0 0 0 0 0.0 0
49 1 -5.5 -0.5 0.0 0 0.01 0.0 0 0 0 0.0 0
50 1 -6.0 -1.0 0.5 0 0.01 0.0 0 0 0 0.0 0
51 1 -6.0 0.0 -0.5 0 0.01 0.0 0 0 0 0.0 0
52 1 -5.5 0.5 0.0 0 0.01 0.0 0 0 0 0.0 0
53 1 -6.0 0.0 0.5 0 0.01 0.0 0 0 0 0.0 0
54 1 -6.0 1.0 -0.5 0 0.01 0.0 0 0 0 0.0 0
55 1 -5.5 1.5 0.0 0 0.01 0.0 0 0 0 0.0 0
56 1 -6.0 1.0 0.5 0 0.01 0.0 0 0 0 0.0 0
57 1 -6.0 2.0 -0.5 0 0.01 0.0 0 0 0 0.0 0
58 1 -5.5 2.5 0.0 0 0.01 0.0 0 0 0 0.0 0
59 1 -6.0 2.0 0.5 0 0.01 0.0 0 0 0 0.0 0
60 1 -6.0 3.0 -0.5 0 0.01 0.0 0 0 0 0.0 0
61 1 -5.5 3.5 0.0 0 0.01 0.0 0 0 0 0.0 0
62 1 -6.0 3.0 0.5 0 0.01 0.0 0 0 0 0.0 0
63 1 -6.0 4.0 -0.5 0 0.01 0.0 0 0 0 0.0 0
64 1 -5.5 4.5 0.0 0 0.01 0.0 0 0 0 0.0 0
65 1 -6.0 4.0 0.5 0 0.01 0.0 0 0 0 0.0 0
66 1 -6.0 5.0 -0.5 0 0.01 0.0 0 0 0 0.0 0
67 1 -5.5 5.5 0.0 0 0.01 0.0 0 0 0 0.0 0
68 1 -6.0 5.0 0.5 0 0.01 0.0 0 0 0 0.0 0
69 1 -6.0 6.0 -0.5 0 0.01 0.0 0 0 0 0.0 0
70 1 -5.5 6.5 0.0 0 0.01 0.0 0 0 0 0.0 0
71 1 -6.0 6.0 0.5 0 0.01 0.0 0 0 0 0.0 0
72 1 -6.0 7.0 -0.5 0 0.01 0.0 0 0 0 0.0 0
73 1 -5.5 7.5 0.0 0 0.01 0.0 0 0 0 0.0 0
74 1 -6.0 7.0 0.5 0 0.01 0.0 0 0 0 0.0 0
75 1 -4.5 -8.5 0.0 0 0.01 0.0 0 0 0 0.0 0
76 1 -4.5 -4.5 0.0 0 0.01 0.0 0 0 0 0.0 0
77 1 -5.0 -4.0 -0.5 0 0.01 0.0 0 0 0 0.0 0
78 1 -4.5 -3.5 0.0 0 0.01 0.0 0 0 0 0.0 0
79 1 -5.0 -4.0 0.5 0 0.01 0.0 0 0 0 0.0 0
80 1 -5.0 -3.0 -0.5 0 0.01 0.0 0 0 0 0.0 0
81 1 -4.5 -2.5 0.0 0 0.01 0.0 0 0 0 0.0 0
82 1 -5.0 -3.0 0.5 0 0.01 0.0 0 0 0 0.0 0
83 1 -5.0 -2.0 -0.5 0 0.01 0.0 0 0 0 0.0 0
84 1 -4.5 -1.5 0.0 0 0.01 0.0 0 0 0 0.0 0
85 1 -5.0 -2.0 0.5 0 0.01 0.0 0 0 0 0.0 0
86 1 -5.0 -1.0 -0.5 0 0.01 0.0 0 0 0 0.0 0
87 1 -4.5 -0.5 0.0 0 0.01 0.0 0 0 0 0.0 0
88 1 -5.0 -1.0 0.5 0 0.01 0.0 0 0 0 0.0 0
89 1 -5.0 0.0 -0.5 0 0.01 0.0 0 0 0 0.0 0
90 1 -4.5 0.5 0.0 0 0.01 0.0 0 0 0 0.0 0
91 1 -5.0 0.0 0.5 0 0.01 0.0 0 0 0 0.0 0
92 1 -5.0 1.0 -0.5 0 0.01 0.0 0 0 0 0.0 0
93 1 -4.5 1.5 0.0 0 0.01 0.0 0 0 0 0.0 0
94 1 -5.0 1.0 0.5 0 0.01 0.0 0 0 0 0.0 0
95 1 -5.0 2.0 -0.5 0 0.01 0.0 0 0 0 0.0 0
96 1 -4.5 2.5 0.0 0 0.01 0.0 0 0 0 0.0 0
97 1 -5.0 2.0 0.5 0 0.01 0.0 0 0 0 0.0 0
98 1 -5.0 3.0 -0.5 0 0.01 0.0 0 0 0 0.0 0
99 1 -4.5 3.5 0.0 0 0.01 0.0 0 0 0 0.0 0
100 1 -5.0 3.0 0.5 0 0.01 0.0 0 0 0 0.0 0
101 1 -5.0 4.0 -0.5 0 0.01 0.0 0 0 0 0.0 0
102 1 -4.5 4.5 0.0 0 0.01 0.0 0 0 0 0.0 0
103 1 -5.0 4.0 0.5 0 0.01 0.0 0 0 0 0.0 0
104 1 -5.0 5.0 -0.5 0 0.01 0.0 0 0 0 0.0 0
105 1 -4.5 5.5 0.0 0 0.01 0.0 0 0 0 0.0 0
106 1 -5.0 5.0 0.5 0 0.01 0.0 0 0 0 0.0 0
107 1 -5.0 6.0 -0.5 0 0.01 0.0 0 0 0 0.0 0
108 1 -4.5 6.5 0.0 0 0.01 0.0 0 0 0 0.0 0
109 1 -5.0 6.0 0.5 0 0.01 0.0 0 0 0 0.0 0
110 1 -5.0 7.0 -0.5 0 0.01 0.0 0 0 0 0.0 0
111 1 -4.5 7.5 0.0 0 0.01 0.0 0 0 0 0.0 0
112 1 -5.0 7.0 0.5 0 0.01 0.0 0 0 0 0.0 0
113 1 -5.0 8.0 -0.5 0 0.01 0.0 0 0 0 0.0 0
114 1 -5.0 8.0 0.5 0 0.01 0.0 0 0 0 0.0 0
115 1 -3.5 -8.5 0.0 0 0.01 0.0 0 0 0 0.0 0
116 1 -4.0 -8.0 -0.5 0 0.01 0.0 0 0 0 0.0 0
117 1 -3.5 -7.5 0.0 0 0.01 0.0 0 0 0 0.0 0
118 1 -4.0 -8.0 0.5 0 0.01 0.0 0 0 0 0.0 0
119 1 -4.0 -7.0 -0.5 0 0.01 0.0 0 0 0 0.0 0
120 1 -3.5 -6.5 0.0 0 0.01 0.0 0 0 0 0.0 0
121 1 -4.0 -7.0 0.5 0 0.01 0.0 0 0 0 0.0 0
122 1 -3.5 -4.5 0.0 0 0.01 0.0 0 0 0 0.0 0
123 1 -4.0 -4.0 -0.5 0 0.01 0.0 0 0 0 0.0 0
124 1 -3.5 -3.5 0.0 0 0.01 0.0 0 0 0 0.0 0
125 1 -4.0 -4.0 0.5 0 0.01 0.0 0 0 0 0.0 0
126 1 -4.0 -3.0 -0.5 0 0.01 0.0 0 0 0 0.0 0
127 1 -3.5 -2.5 0.0 0 0.01 0.0 0 0 0 0.0 0
128 1 -4.0 -3.0 0.5 0 0.01 0.0 0 0 0 0.0 0
129 1 -4.0 -2.0 -0.5 0 0.01 0.0 0 0 0 0.0 0
130 1 -3.5 -1.5 0.0 0 0.01 0.0 0 0 0 0.0 0
131 1 -4.0 -2.0 0.5 0 0.01 0.0 0 0 0 0.0 0
132 1 -4.0 -1.0 -0.5 0 0.01 0.0 0 0 0 0.0 0
133 1 -3.5 -0.5 0.0 0 0.01 0.0 0 0 0 0.0 0
134 1 -4.0 -1.0 0.5 0 0.01 0.0 0 0 0 0.0 0
135 1 -4.0 0.0 -0.5 0 0.01 0.0 0 0 0 0.0 0
136 1 -3.5 0.5 0.0 0 0.01 0.0 0 0 0 0.0 0
137 1 -4.0 0.0 0.5 0 0.01 0.0 0 0 0 0.0 0
138 1 -4.0 1.0 -0.5 0 0.01 0.0 0 0 0 0.0 0
139 1 -3.5 1.5 0.0 0 0.01 0.0 0 0 0 0.0 0
140 1 -4.0 1.0 0.5 0 0.01 0.0 0 0 0 0.0 0
141 1 -4.0 2.0 -0.5 0 0.01 0.0 0 0 0 0.0 0
142 1 -3.5 2.5 0.0 0 0.01 0.0 0 0 0 0.0 0
143 1 -4.0 2.0 0.5 0 0.01 0.0 0 0 0 0.0 0
144 1 -4.0 3.0 -0.5 0 0.01 0.0 0 0 0 0.0 0
145 1 -3.5 3.5 0.0 0 0.01 0.0 0 0 0 0.0 0
146 1 -4.0 3.0 0.5 0 0.01 0.0 0 0 0 0.0 0
147 1 -4.0 4.0 -0.5 0 0.01 0.0 0 0 0 0.0 0
148 1 -3.5 4.5 0.0 0 0.01 0.0 0 0 0 0.0 0
149 1 -4.0 4.0 0.5 0 0.01 0.0 0 0 0 0.0 0
150 1 -4.0 5.0 -0.5 0 0.01 0.0 0 0 0 0.0 0
151 1 -3.5 5.5 0.0 0 0.01 0.0 0 0 0 0.0 0
152 1 -4.0 5.0 0.5 0 0.01 0.0 0 0 0 0.0 0
153 1 -4.0 6.0 -0.5 0 0.01 0.0 0 0 0 0.0 0
154 1 -4.0 6.0 0.5 0 0.01 0.0 0 0 0 0.0 0
155 1 -3.0 -9.0 -0.5 0 0.01 0.0 0 0 0 0.0 0
156 1 -2.5 -8.5 0.0 0 0.01 0.0 0 0 0 0.0 0
157 1 -3.0 -9.0 0.5 0 0.01 0.0 0 0 0 0.0 0
158 1 -3.0 -8.0 -0.5 0 0.01 0.0 0 0 0 0.0 0
159 1 -2.5 -7.5 0.0 0 0.01 0.0 0 0 0 0.0 0
160 1 -3.0 -8.0 0.5 0 0.01 0.0 0 0 0 0.0 0
161 1 -3.0 -7.0 -0.5 0 0.01 0.0 0 0 0 0.0 0
162 1 -2.5 -6.5 0.0 0 0.01 0.0 0 0 0 0.0 0
163 1 -3.0 -7.0 0.5 0 0.01 0.0 0 0 0 0.0 0
164 1 -3.0 -6.0 -0.5 0 0.01 0.0 0 0 0 0.0 0
165 1 -2.5 -5.5 0.0 0 0.01 0.0 0 0 0 0.0 0
166 1 -3.0 -6.0 0.5 0 0.01 0.0 0 0 0 0.0 0
167 1 -3.0 -5.0 -0.5 0 0.01 0.0 0 0 0 0.0 0
168 1 -2.5 -4.5 0.0 0 0.01 0.0 0 0 0 0.0 0
169 1 -3.0 -5.0 0.5 0 0.01 0.0 0 0 0 0.0 0
170 1 -3.0 -4.0 -0.5 0 0.01 0.0 0 0 0 0.0 0
171 1 -2.5 -3.5 0.0 0 0.01 0.0 0 0 0 0.0 0
172 1 -3.0 -4.0 0.5 0 0.01 0.0 0 0 0 0.0 0
173 1 -3.0 -3.0 -0.5 0 0.01 0.0 0 0 0 0.0 0
174 1 -2.5 -2.5 0.0 0 0.01 0.0 0 0 0 0.0 0
175 1 -3.0 -3.0 0.5 0 0.01 0.0 0 0 0 0.0 0
176 1 -3.0 3.0 -0.5 0 0.01 0.0 0 0 0 0.0 0
177 1 -2.5 3.5 0.0 0 0.01 0.0 0 0 0 0.0 0
178 1 -3.0 3.0 0.5 0 0.01 0.0 0 0 0 0.0 0
179 1 -3.0 4.0 -0.5 0 0.01 0.0 0 0 0 0.0 0
180 1 -2.5 4.5 0.0 0 0.01 0.0 0 0 0 0.0 0
181 1 -3.0 4.0 0.5 0 0.01 0.0 0 0 0 0.0 0
182 1 -3.0 5.0 -0.5 0 0.01 0.0 0 0 0 0.0 0
183 1 -2.5 5.5 0.0 0 0.01 0.0 0 0 0 0.0 0
184 1 -3.0 5.0 0.5 0 0.01 0.0 0 0 0 0.0 0
185 1 -2.0 -9.0 -0.5 0 0.01 0.0 0 0 0 0.0 0
186 1 -1.5 -8.5 0.0 0 0.01 0.0 0 0 0 0.0 0
187 1 -2.0 -9.0 0.5 0 0.01 0.0 0 0 0 0.0 0
188 1 -2.0 -8.0 -0.5 0 0.01 0.0 0 0 0 0.0 0
189 1 -1.5 -7.5 0.0 0 0.01 0.0 0 0 0 0.0 0
190 1 -2.0 -8.0 0.5 0 0.01 0.0 0 0 0 0.0 0
191 1 -2.0 -7.0 -0.5 0 0.01 0.0 0 0 0 0.0 0
192 1 -1.5 -6.5 0.0 0 0.01 0.0 0 0 0 0.0 0
193 1 -2.0 -7.0 0.5 0 0.01 0.0 0 0 0 0.0 0
194 1 -2.0 -6.0 -0.5 0 0.01 0.0 0 0 0 0.0 0
195 1 -1.5 -5.5 0.0 0 0.01 0.0 0 0 0 0.0 0
196 1 -2.0 -6.0 0.5 0 0.01 0.0 0 0 0 0.0 0
197 1 -2.0 -5.0 -0.5 0 0.01 0.0 0 0 0 0.0 0
198 1 -1.5 -4.5 0.0 0 0.01 0.0 0 0 0 0.0 0
199 1 -2.0 -5.0 0.5 0 0.01 0.0 0 0 0 0.0 0
200 1 -2.0 -4.0 -0.5 0 0.01 0.0 0 0 0 0.0 0
201 1 -1.5 -3.5 0.0 0 0.01 0.0 0 0 0 0.0 0
202 1 -2.0 -4.0 0.5 0 0.01 0.0 0 0 0 0.0 0
203 1 -2.0 4.0 -0.5 0 0.01 0.0 0 0 0 0.0 0
204 1 -1.5 4.5 0.0 0 0.01 0.0 0 0 0 0.0 0
205 1 -2.0 4.0 0.5 0 0.01 0.0 0 0 0 0.0 0
206 1 -2.0 5.0 -0.5 0 0.01 0.0 0 0 0 0.0 0
207 1 -1.5 5.5 0.0 0 0.01 0.0 0 0 0 0.0 0
208 1 -2.0 5.0 0.5 0 0.01 0.0 0 0 0 0.0 0
209 1 -2.0 6.0 -0.5 0 0.01 0.0 0 0 0 0.0 0
210 1 -2.0 6.0 0.5 0 0.01 0.0 0 0 0 0.0 0
211 1 -1.0 -9.0 -0.5 0 0.01 0.0 0 0 0 0.0 0
212 1 -0.5 -8.5 0.0 0 0.01 0.0 0 0 0 0.0 0
213 1 -1.0 -9.0 0.5 0 0.01 0.0 0 0 0 0.0 0
214 1 -1.0 -8.0 -0.5 0 0.01 0.0 0 0 0 0.0 0
215 1 -0.5 -7.5 0.0 0 0.01 0.0 0 0 0 0.0 0
216 1 -1.0 -8.0 0.5 0 0.01 0.0 0 0 0 0.0 0
217 1 -1.0 -7.0 -0.5 0 0.01 0.0 0 0 0 0.0 0
218 1 -0.5 -6.5 0.0 0 0.01 0.0 0 0 0 0.0 0
219 1 -1.0 -7.0 0.5 0 0.01 0.0 0 0 0 0.0 0
220 1 -1.0 -6.0 -0.5 0 0.01 0.0 0 0 0 0.0 0
221 1 -0.5 -5.5 0.0 0 0.01 0.0 0 0 0 0.0 0
222 1 -1.0 -6.0 0.5 0 0.01 0.0 0 0 0 0.0 0
223 1 -1.0 -5.0 -0.5 0 0.01 0.0 0 0 0 0.0 0
224 1 -0.5 -4.5 0.0 0 0.01 0.0 0 0 0 0.0 0
225 1 -1.0 -5.0 0.5 0 0.01 0.0 0 0 0 0.0 0
226 1 -1.0 -4.0 -0.5 0 0.01 0.0 0 0 0 0.0 0
227 1 -0.5 -3.5 0.0 0 0.01 0.0 0 0 0 0.0 0
228 1 -1.0 -4.0 0.5 0 0.01 0.0 0 0 0 0.0 0
229 1 -1.0 4.0 -0.5 0 0.01 0.0 0 0 0 0.0 0
230 1 -0.5 4.5 0.0 0 0.01 0.0 0 0 0 0.0 0
231 1 -1.0 4.0 0.5 0 0.01 0.0 0 0 0 0.0 0
232 1 -1.0 5.0 -0.5 0 0.01 0.0 0 0 0 0.0 0
233 1 -0.5 5.5 0.0 0 0.01 0.0 0 0 0 0.0 0
234 1 -1.0 5.0 0.5 0 0.01 0.0 0 0 0 0.0 0
235 1 -1.0 6.0 -0.5 0 0.01 0.0 0 0 0 0.0 0
236 1 -0.5 6.5 0.0 0 0.01 0.0 0 0 0 0.0 0
237 1 -1.0 6.0 0.5 0 0.01 0.0 0 0 0 0.0 0
238 1 0.5 -8.5 0.0 0 0.01 0.0 0 0 0 0.0 0
239 1 0.0 -8.0 -0.5 0 0.01 0.0 0 0 0 0.0 0
240 1 0.5 -7.5 0.0 0 0.01 0.0 0 0 0 0.0 0
241 1 0.0 -8.0 0.5 0 0.01 0.0 0 0 0 0.0 0
242 1 0.0 -7.0 -0.5 0 0.01 0.0 0 0 0 0.0 0
243 1 0.5 -6.5 0.0 0 0.01 0.0 0 0 0 0.0 0
244 1 0.0 -7.0 0.5 0 0.01 0.0 0 0 0 0.0 0
245 1 0.0 -6.0 -0.5 0 0.01 0.0 0 0 0 0.0 0
246 1 0.5 -5.5 0.0 0 0.01 0.0 0 0 0 0.0 0
247 1 0.0 -6.0 0.5 0 0.01 0.0 0 0 0 0.0 0
248 1 0.0 -5.0 -0.5 0 0.01 0.0 0 0 0 0.0 0
249 1 0.5 -4.5 0.0 0 0.01 0.0 0 0 0 0.0 0
250 1 0.0 -5.0 0.5 0 0.01 0.0 0 0 0 0.0 0
251 1 0.0 -4.0 -0.5 0 0.01 0.0 0 0 0 0.0 0
252 1 0.5 -3.5 0.0 0 0.01 0.0 0 0 0 0.0 0
253 1 0.0 -4.0 0.5 0 0.01 0.0 0 0 0 0.0 0
254 1 0.0 4.0 -0.5 0 0.01 0.0 0 0 0 0.0 0
255 1 0.5 4.5 0.0 0 0.01 0.0 0 0 0 0.0 0
256 1 0.0 4.0 0.5 0 0.01 0.0 0 0 0 0.0 0
257 1 0.0 5.0 -0.5 0 0.01 0.0 0 0 0 0.0 0
258 1 0.5 5.5 0.0 0 0.01 0.0 0 0 0 0.0 0
259 1 0.0 5.0 0.5 0 0.01 0.0 0 0 0 0.0 0
260 1 0.0 6.0 -0.5 0 0.01 0.0 0 0 0 0.0 0
261 1 0.5 6.5 0.0 0 0.01 0.0 0 0 0 0.0 0
262 1 0.0 6.0 0.5 0 0.01 0.0 0 0 0 0.0 0
263 1 1.5 -8.5 0.0 0 0.01 0.0 0 0 0 0.0 0
264 1 1.0 -8.0 -0.5 0 0.01 0.0 0 0 0 0.0 0
265 1 1.5 -7.5 0.0 0 0.01 0.0 0 0 0 0.0 0
266 1 1.0 -8.0 0.5 0 0.01 0.0 0 0 0 0.0 0
267 1 1.0 -7.0 -0.5 0 0.01 0.0 0 0 0 0.0 0
268 1 1.5 -6.5 0.0 0 0.01 0.0 0 0 0 0.0 0
269 1 1.0 -7.0 0.5 0 0.01 0.0 0 0 0 0.0 0
270 1 1.0 -6.0 -0.5 0 0.01 0.0 0 0 0 0.0 0
271 1 1.5 -5.5 0.0 0 0.01 0.0 0 0 0 0.0 0
272 1 1.0 -6.0 0.5 0 0.01 0.0 0 0 0 0.0 0
273 1 1.0 -5.0 -0.5 0 0.01 0.0 0 0 0 0.0 0
274 1 1.5 -4.5 0.0 0 0.01 0.0 0 0 0 0.0 0
275 1 1.0 -5.0 0.5 0 0.01 0.0 0 0 0 0.0 0
276 1 1.0 -4.0 -0.5 0 0.01 0.0 0 0 0 0.0 0
277 1 1.5 -3.5 0.0 0 0.01 0.0 0 0 0 0.0 0
278 1 1.0 -4.0 0.5 0 0.01 0.0 0 0 0 0.0 0
279 1 1.0 4.0 -0.5 0 0.01 0.0 0 0 0 0.0 0
280 1 1.5 4.5 0.0 0 0.01 0.0 0 0 0 0.0 0
281 1 1.0 4.0 0.5 0 0.01 0.0 0 0 0 0.0 0
282 1 1.0 5.0 -0.5 0 0.01 0.0 0 0 0 0.0 0
283 1 1.5 5.5 0.0 0 0.01 0.0 0 0 0 0.0 0
284 1 1.0 5.0 0.5 0 0.01 0.0 0 0 0 0.0 0
285 1 1.0 6.0 -0.5 0 0.01 0.0 0 0 0 0.0 0
286 1 1.5 6.5 0.0 0 0.01 0.0 0 0 0 0.0 0
287 1 1.0 6.0 0.5 0 0.01 0.0 0 0 0 0.0 0
288 1 1.0 7.0 -0.5 0 0.01 0.0 0 0 0 0.0 0
289 1 1.0 7.0 0.5 0 0.01 0.0 0 0 0 0.0 0
290 1 2.0 -8.0 -0.5 0 0.01 0.0 0 0 0 0.0 0
291 1 2.5 -7.5 0.0 0 0.01 0.0 0 0 0 0.0 0
292 1 2.0 -8.0 0.5 0 0.01 0.0 0 0 0 0.0 0
293 1 2.0 -7.0 -0.5 0 0.01 0.0 0 0 0 0.0 0
294 1 2.5 -6.5 0.0 0 0.01 0.0 0 0 0 0.0 0
295 1 2.0 -7.0 0.5 0 0.01 0.0 0 0 0 0.0 0
296 1 2.0 -6.0 -0.5 0 0.01 0.0 0 0 0 0.0 0
297 1 2.5 -5.5 0.0 0 0.01 0.0 0 0 0 0.0 0
298 1 2.0 -6.0 0.5 0 0.01 0.0 0 0 0 0.0 0
299 1 2.0 -5.0 -0.5 0 0.01 0.0 0 0 0 0.0 0
300 1 2.5 -4.5 0.0 0 0.01 0.0 0 0 0 0.0 0
301 1 2.0 -5.0 0.5 0 0.01 0.0 0 0 0 0.0 0
302 1 2.0 -4.0 -0.5 0 0.01 0.0 0 0 0 0.0 0
303 1 2.5 -3.5 0.0 0 0.01 0.0 0 0 0 0.0 0
304 1 2.0 -4.0 0.5 0 0.01 0.0 0 0 0 0.0 0
305 1 2.0 4.0 -0.5 0 0.01 0.0 0 0 0 0.0 0
306 1 2.5 4.5 0.0 0 0.01 0.0 0 0 0 0.0 0
307 1 2.0 4.0 0.5 0 0.01 0.0 0 0 0 0.0 0
308 1 2.0 5.0 -0.5 0 0.01 0.0 0 0 0 0.0 0
309 1 2.5 5.5 0.0 0 0.01 0.0 0 0 0 0.0 0
310 1 2.0 5.0 0.5 0 0.01 0.0 0 0 0 0.0 0
311 1 2.0 6.0 -0.5 0 0.01 0.0 0 0 0 0.0 0
312 1 2.5 6.5 0.0 0 0.01 0.0 0 0 0 0.0 0
313 1 2.0 6.0 0.5 0 0.01 0.0 0 0 0 0.0 0
314 1 2.0 7.0 -0.5 0 0.01 0.0 0 0 0 0.0 0
315 1 2.0 7.0 0.5 0 0.01 0.0 0 0 0 0.0 0
316 1 3.0 -7.0 -0.5 0 0.01 0.0 0 0 0 0.0 0
317 1 3.5 -6.5 0.0 0 0.01 0.0 0 0 0 0.0 0
318 1 3.0 -7.0 0.5 0 0.01 0.0 0 0 0 0.0 0
319 1 3.0 -6.0 -0.5 0 0.01 0.0 0 0 0 0.0 0
320 1 3.5 -5.5 0.0 0 0.01 0.0 0 0 0 0.0 0
321 1 3.0 -6.0 0.5 0 0.01 0.0 0 0 0 0.0 0
322 1 3.0 -5.0 -0.5 0 0.01 0.0 0 0 0 0.0 0
323 1 3.5 -4.5 0.0 0 0.01 0.0 0 0 0 0.0 0
324 1 3.0 -5.0 0.5 0 0.01 0.0 0 0 0 0.0 0
325 1 3.0 -4.0 -0.5 0 0.01 0.0 0 0 0 0.0 0
326 1 3.5 -3.5 0.0 0 0.01 0.0 0 0 0 0.0 0
327 1 3.0 -4.0 0.5 0 0.01 0.0 0 0 0 0.0 0
328 1 3.0 -3.0 -0.5 0 0.01 0.0 0 0 0 0.0 0
329 1 3.5 -2.5 0.0 0 0.01 0.0 0 0 0 0.0 0
330 1 3.0 -3.0 0.5 0 0.01 0.0 0 0 0 0.0 0
331 1 3.0 3.0 -0.5 0 0.01 0.0 0 0 0 0.0 0
332 1 3.5 3.5 0.0 0 0.01 0.0 0 0 0 0.0 0
333 1 3.0 3.0 0.5 0 0.01 0.0 0 0 0 0.0 0
334 1 3.0 4.0 -0.5 0 0.01 0.0 0 0 0 0.0 0
335 1 3.5 4.5 0.0 0 0.01 0.0 0 0 0 0.0 0
336 1 3.0 4.0 0.5 0 0.01 0.0 0 0 0 0.0 0
337 1 3.0 5.0 -0.5 0 0.01 0.0 0 0 0 0.0 0
338 1 3.5 5.5 0.0 0 0.01 0.0 0 0 0 0.0 0
339 1 3.0 5.0 0.5 0 0.01 0.0 0 0 0 0.0 0
340 1 3.0 6.0 -0.5 0 0.01 0.0 0 0 0 0.0 0
341 1 3.5 6.5 0.0 0 0.01 0.0 0 0 0 0.0 0
342 1 3.0 6.0 0.5 0 0.01 0.0 0 0 0 0.0 0
343 1 3.0 7.0 -0.5 0 0.01 0.0 0 0 0 0.0 0
344 1 3.0 7.0 0.5 0 0.01 0.0 0 0 0 0.0 0
345 1 4.0 -6.0 -0.5 0 0.01 0.0 0 0 0 0.0 0
346 1 4.5 -5.5 0.0 0 0.01 0.0 0 0 0 0.0 0
347 1 4.0 -6.0 0.5 0 0.01 0.0 0 0 0 0.0 0
348 1 4.0 -5.0 -0.5 0 0.01 0.0 0 0 0 0.0 0
349 1 4.5 -4.5 0.0 0 0.01 0.0 0 0 0 0.0 0
350 1 4.0 -5.0 0.5 0 0.01 0.0 0 0 0 0.0 0
351 1 4.0 -4.0 -0.5 0 0.01 0.0 0 0 0 0.0 0
352 1 4.5 -3.5 0.0 0 0.01 0.0 0 0 0 0.0 0
353 1 4.0 -4.0 0.5 0 0.01 0.0 0 0 0 0.0 0
354 1 4.0 -3.0 -0.5 0 0.01 0.0 0 0 0 0.0 0
355 1 4.5 -2.5 0.0 0 0.01 0.0 0 0 0 0.0 0
356 1 4.0 -3.0 0.5 0 0.01 0.0 0 0 0 0.0 0
357 1 4.0 -2.0 -0.5 0 0.01 0.0 0 0 0 0.0 0
358 1 4.5 -1.5 0.0 0 0.01 0.0 0 0 0 0.0 0
359 1 4.0 -2.0 0.5 0 0.01 0.0 0 0 0 0.0 0
360 1 4.0 -1.0 -0.5 0 0.01 0.0 0 0 0 0.0 0
361 1 4.5 -0.5 0.0 0 0.01 0.0 0 0 0 0.0 0
362 1 4.0 -1.0 0.5 0 0.01 0.0 0 0 0 0.0 0
363 1 4.0 0.0 -0.5 0 0.01 0.0 0 0 0 0.0 0
364 1 4.5 0.5 0.0 0 0.01 0.0 0 0 0 0.0 0
365 1 4.0 0.0 0.5 0 0.01 0.0 0 0 0 0.0 0
366 1 4.0 1.0 -0.5 0 0.01 0.0 0 0 0 0.0 0
367 1 4.5 1.5 0.0 0 0.01 0.0 0 0 0 0.0 0
368 1 4.0 1.0 0.5 0 0.01 0.0 0 0 0 0.0 0
369 1 4.0 2.0 -0.5 0 0.01 0.0 0 0 0 0.0 0
370 1 4.5 2.5 0.0 0 0.01 0.0 0 0 0 0.0 0
371 1 4.0 2.0 0.5 0 0.01 0.0 0 0 0 0.0 0
372 1 4.0 3.0 -0.5 0 0.01 0.0 0 0 0 0.0 0
373 1 4.5 3.5 0.0 0 0.01 0.0 0 0 0 0.0 0
374 1 4.0 3.0 0.5 0 0.01 0.0 0 0 0 0.0 0
375 1 4.0 4.0 -0.5 0 0.01 0.0 0 0 0 0.0 0
376 1 4.5 4.5 0.0 0 0.01 0.0 0 0 0 0.0 0
377 1 4.0 4.0 0.5 0 0.01 0.0 0 0 0 0.0 0
378 1 4.0 5.0 -0.5 0 0.01 0.0 0 0 0 0.0 0
379 1 4.5 5.5 0.0 0 0.01 0.0 0 0 0 0.0 0
380 1 4.0 5.0 0.5 0 0.01 0.0 0 0 0 0.0 0
381 1 4.0 6.0 -0.5 0 0.01 0.0 0 0 0 0.0 0
382 1 4.5 6.5 0.0 0 0.01 0.0 0 0 0 0.0 0
383 1 4.0 6.0 0.5 0 0.01 0.0 0 0 0 0.0 0
384 1 5.0 -5.0 -0.5 0 0.01 0.0 0 0 0 0.0 0
385 1 5.5 -4.5 0.0 0 0.01 0.0 0 0 0 0.0 0
386 1 5.0 -5.0 0.5 0 0.01 0.0 0 0 0 0.0 0
387 1 5.0 -4.0 -0.5 0 0.01 0.0 0 0 0 0.0 0
388 1 5.5 -3.5 0.0 0 0.01 0.0 0 0 0 0.0 0
389 1 5.0 -4.0 0.5 0 0.01 0.0 0 0 0 0.0 0
390 1 5.0 -3.0 -0.5 0 0.01 0.0 0 0 0 0.0 0
391 1 5.5 -2.5 0.0 0 0.01 0.0 0 0 0 0.0 0
392 1 5.0 -3.0 0.5 0 0.01 0.0 0 0 0 0.0 0
393 1 5.0 -2.0 -0.5 0 0.01 0.0 0 0 0 0.0 0
394 1 5.5 -1.5 0.0 0 0.01 0.0 0 0 0 0.0 0
395 1 5.0 -2.0 0.5 0 0.01 0.0 0 0 0 0.0 0
396 1 5.0 -1.0 -0.5 0 0.01 0.0 0 0 0 0.0 0
397 1 5.5 -0.5 0.0 0 0.01 0.0 0 0 0 0.0 0
398 1 5.0 -1.0 0.5 0 0.01 0.0 0 0 0 0.0 0
399 1 5.0 0.0 -0.5 0 0.01 0.0 0 0 0 0.0 0
400 1 5.5 0.5 0.0 0 0.01 0.0 0 0 0 0.0 0
401 1 5.0 0.0 0.5 0 0.01 0.0 0 0 0 0.0 0
402 1 5.0 1.0 -0.5 0 0.01 0.0 0 0 0 0.0 0
403 1 5.5 1.5 0.0 0 0.01 0.0 0 0 0 0.0 0
404 1 5.0 1.0 0.5 0 0.01 0.0 0 0 0 0.0 0
405 1 5.0 2.0 -0.5 0 0.01 0.0 0 0 0 0.0 0
406 1 5.5 2.5 0.0 0 0.01 0.0 0 0 0 0.0 0
407 1 5.0 2.0 0.5 0 0.01 0.0 0 0 0 0.0 0
408 1 5.0 3.0 -0.5 0 0.01 0.0 0 0 0 0.0 0
409 1 5.5 3.5 0.0 0 0.01 0.0 0 0 0 0.0 0
410 1 5.0 3.0 0.5 0 0.01 0.0 0 0 0 0.0 0
411 1 5.0 4.0 -0.5 0 0.01 0.0 0 0 0 0.0 0
412 1 5.5 4.5 0.0 0 0.01 0.0 0 0 0 0.0 0
413 1 5.0 4.0 0.5 0 0.01 0.0 0 0 0 0.0 0
414 1 5.0 5.0 -0.5 0 0.01 0.0 0 0 0 0.0 0
415 1 5.5 5.5 0.0 0 0.01 0.0 0 0 0 0.0 0
416 1 5.0 5.0 0.5 0 0.01 0.0 0 0 0 0.0 0
417 1 5.0 6.0 -0.5 0 0.01 0.0 0 0 0 0.0 0
418 1 5.0 6.0 0.5 0 0.01 0.0 0 0 0 0.0 0
419 1 6.0 -3.0 -0.5 0 0.01 0.0 0 0 0 0.0 0
420 1 6.0 -3.0 0.5 0 0.01 0.0 0 0 0 0.0 0
421 1 6.0 -2.0 -0.5 0 0.01 0.0 0 0 0 0.0 0
422 1 6.0 -2.0 0.5 0 0.01 0.0 0 0 0 0.0 0
423 1 6.0 -1.0 -0.5 0 0.01 0.0 0 0 0 0.0 0
424 1 6.0 -1.0 0.5 0 0.01 0.0 0 0 0 0.0 0
425 1 6.0 0.0 -0.5 0 0.01 0.0 0 0 0 0.0 0
426 1 6.5 0.5 0.0 0 0.01 0.0 0 0 0 0.0 0
427 1 6.0 0.0 0.5 0 0.01 0.0 0 0 0 0.0 0
428 1 6.0 1.0 -0.5 0 0.01 0.0 0 0 0 0.0 0
429 1 6.5 1.5 0.0 0 0.01 0.0 0 0 0 0.0 0
430 1 6.0 1.0 0.5 0 0.01 0.0 0 0 0 0.0 0
431 1 6.0 2.0 -0.5 0 0.01 0.0 0 0 0 0.0 0
432 1 6.5 2.5 0.0 0 0.01 0.0 0 0 0 0.0 0
433 1 6.0 2.0 0.5 0 0.01 0.0 0 0 0 0.0 0
434 1 6.0 3.0 -0.5 0 0.01 0.0 0 0 0 0.0 0
435 1 6.5 3.5 0.0 0 0.01 0.0 0 0 0 0.0 0
436 1 6.0 3.0 0.5 0 0.01 0.0 0 0 0 0.0 0
437 1 6.0 4.0 -0.5 0 0.01 0.0 0 0 0 0.0 0
438 1 6.5 4.5 0.0 0 0.01 0.0 0 0 0 0.0 0
439 1 6.0 4.0 0.5 0 0.01 0.0 0 0 0 0.0 0
440 1 6.0 5.0 -0.5 0 0.01 0.0 0 0 0 0.0 0
441 1 6.5 5.5 0.0 0 0.01 0.0 0 0 0 0.0 0
442 1 6.0 5.0 0.5 0 0.01 0.0 0 0 0 0.0 0
443 1 6.0 6.0 -0.5 0 0.01 0.0 0 0 0 0.0 0
444 1 6.0 6.0 0.5 0 0.01 0.0 0 0 0 0.0 0
445 1 7.0 0.0 -0.5 0 0.01 0.0 0 0 0 0.0 0
446 1 7.5 0.5 0.0 0 0.01 0.0 0 0 0 0.0 0
447 1 7.0 0.0 0.5 0 0.01 0.0 0 0 0 0.0 0
448 1 7.0 1.0 -0.5 0 0.01 0.0 0 0 0 0.0 0
449 1 7.5 1.5 0.0 0 0.01 0.0 0 0 0 0.0 0
450 1 7.0 1.0 0.5 0 0.01 0.0 0 0 0 0.0 0
451 1 7.0 2.0 -0.5 0 0.01 0.0 0 0 0 0.0 0
452 1 7.5 2.5 0.0 0 0.01 0.0 0 0 0 0.0 0
453 1 7.0 2.0 0.5 0 0.01 0.0 0 0 0 0.0 0
454 1 7.0 3.0 -0.5 0 0.01 0.0 0 0 0 0.0 0
455 1 7.5 3.5 0.0 0 0.01 0.0 0 0 0 0.0 0
456 1 7.0 3.0 0.5 0 0.01 0.0 0 0 0 0.0 0
457 1 7.0 4.0 -0.5 0 0.01 0.0 0 0 0 0.0 0
458 1 7.5 4.5 0.0 0 0.01 0.0 0 0 0 0.0 0
459 1 7.0 4.0 0.5 0 0.01 0.0 0 0 0 0.0 0
460 1 7.0 5.0 -0.5 0 0.01 0.0 0 0 0 0.0 0
461 1 7.0 5.0 0.5 0 0.01 0.0 0 0 0 0.0 0
462 1 8.0 0.0 -0.5 0 0.01 0.0 0 0 0 0.0 0
463 1 8.5 0.5 0.0 0 0.01 0.0 0 0 0 0.0 0
464 1 8.0 0.0 0.5 0 0.01 0.0 0 0 0 0.0 0
465 1 8.0 1.0 -0.5 0 0.01 0.0 0 0 0 0.0 0
466 1 8.5 1.5 0.0 0 0.01 0.0 0 0 0 0.0 0
467 1 8.0 1.0 0.5 0 0.01 0.0 0 0 0 0.0 0
468 1 8.0 2.0 -0.5 0 0.01 0.0 0 0 0 0.0 0
469 1 8.5 2.5 0.0 0 0.01 0.0 0 0 0 0.0 0
470 1 8.0 2.0 0.5 0 0.01 0.0 0 0 0 0.0 0
471 1 8.0 3.0 -0.5 0 0.01 0.0 0 0 0 0.0 0
472 1 8.5 3.5 0.0 0 0.01 0.0 0 0 0 0.0 0
473 1 8.0 3.0 0.5 0 0.01 0.0 0 0 0 0.0 0
474 1 8.0 4.0 -0.5 0 0.01 0.0 0 0 0 0.0 0
475 1 8.0 4.0 0.5 0 0.01 0.0 0 0 0 0.0 0
476 1 9.0 0.0 -0.5 0 0.01 0.0 0 0 0 0.0 0
477 1 9.5 0.5 0.0 0 0.01 0.0 0 0 0 0.0 0
478 1 9.0 0.0 0.5 0 0.01 0.0 0 0 0 0.0 0
479 1 9.0 1.0 -0.5 0 0.01 0.0 0 0 0 0.0 0
480 1 9.5 1.5 0.0 0 0.01 0.0 0 0 0 0.0 0
481 1 9.0 1.0 0.5 0 0.01 0.0 0 0 0 0.0 0
482 1 9.0 2.0 -0.5 0 0.01 0.0 0 0 0 0.0 0
483 1 9.0 2.0 0.5 0 0.01 0.0 0 0 0 0.0 0
484 1 10.0 0.0 -0.5 0 0.01 0.0 0 0 0 0.0 0
485 1 10.0 0.0 0.5 0 0.01 0.0 0 0 0 0.0 0

Bonds

1 1 267 269
2 2 458 474
3 1 30 33
4 2 9 10
5 2 41 42
6 2 300 302
7 1 459 475
8 2 391 420
9 2 271 275
10 1 41 78
11 2 42 43
12 1 361 397
13 2 373 408
14 1 45 48
15 1 362 398
16 1 195 221
17 1 155 185
18 2 107 108
19 2 355 359
20 1 366 368
21 2 52 92
22 1 97 100
23 1 156 186
24 1 196 222
25 2 355 395
26 2 108 109
27 2 388 392
28 2 159 191
29 2 367 369
30 1 399 401
31 2 370 374
32 1 443 444
33 1 130 133
34 2 148 181
35 2 189 219
36 2 141 142
37 2 240 264
38 2 400 402
39 1 99 145
40 2 432 434
41 2 403 407
42 2 102 150
43 2 476 477
44 1 163 166
45 2 174 175
46 2 477 478
47 2 303 325
48 1 196 199
49 2 207 208
50 2 466 468
51 1 178 181
52 1 18 49
53 2 317 345
54 1 229 232
55 1 328 354
56 2 320 350
57 2 240 241
58 1 273 275
59 1 211 214
60 1 329 355
61 2 394 421
62 2 306 308
63 1 244 247
64 2 4 6
65 1 295 298
66 2 274 275
67 1 454 471
68 2 406 431
69 2 446 467
70 1 368 404
71 1 180 204
72 2 58 98
73 1 69 107
74 2 70 72
75 1 202 228
76 1 369 405
77 1 181 205
78 2 340 341
79 2 373 375
80 2 151 182
81 2 162 191
82 1 362 365
83 2 147 148
84 2 406 408
85 1 105 151
86 2 224 251
87 1 104 106
88 2 136 138
89 1 268 294
90 1 395 398
91 2 180 181
92 1 106 152
93 2 117 161
94 1 236 261
95 1 428 431
96 2 7 29
97 1 440 442
98 2 472 474
99 2 258 285
100 1 170 172
101 2 214 215
102 2 13 45
103 1 473 475
104 2 24 54
105 2 291 318
106 1 203 205
107 1 10 12
108 2 280 281
109 2 258 262
110 1 438 458
111 2 43 45
112 2 449 467
113 1 401 427
114 1 32 35
115 2 64 104
116 1 43 81
117 2 291 295
118 1 402 428
119 1 335 338
120 2 394 424
121 1 314 315
122 2 61 98
123 2 346 347
124 1 33 36
125 1 65 68
126 2 364 401
127 1 368 371
128 2 379 380
129 1 146 178
130 1 66 69
131 1 157 187
132 2 77 78
133 1 110 112
134 1 369 372
135 1 401 404
136 2 168 202
137 1 99 102
138 1 198 224
139 1 242 267
140 1 402 405
141 1 434 437
142 2 120 161
143 1 132 135
144 1 176 178
145 2 2 25
146 1 435 438
147 1 467 470
148 2 446 447
149 2 105 154
150 1 165 168
151 2 297 324
152 2 177 179
153 1 468 471
154 2 180 184
155 2 479 480
156 2 286 314
157 1 198 201
158 1 242 244
159 1 20 51
160 2 243 245
161 1 463 477
162 1 21 52
163 2 312 344
164 2 24 57
165 1 232 235
166 2 17 18
167 1 464 478
168 1 396 423
169 1 276 278
170 1 308 310
171 1 427 447
172 1 6 8
173 1 265 268
174 2 397 424
175 2 309 311
176 2 341 343
177 2 51 52
178 2 438 461
179 1 370 406
180 2 83 84
181 2 449 470
182 2 49 91
183 1 342 344
184 2 61 65
185 1 105 108
186 1 204 230
187 2 84 85
188 1 371 407
189 1 164 194
190 2 116 117
191 2 364 368
192 1 375 377
193 1 106 109
194 1 205 231
195 1 138 141
196 2 117 118
197 2 397 401
198 2 115 157
199 1 408 410
200 1 107 153
201 2 215 244
202 2 127 131
203 2 168 169
204 1 139 142
205 2 238 264
206 1 171 174
207 1 270 296
208 2 150 151
209 2 249 273
210 2 108 154
211 2 441 443
212 2 201 202
213 2 12 37
214 2 300 324
215 1 172 175
216 1 271 297
217 2 183 184
218 2 463 467
219 1 442 444
220 1 26 57
221 1 205 208
222 2 15 47
223 2 326 354
224 2 238 241
225 2 249 250
226 2 27 57
227 1 239 242
228 1 271 274
229 1 470 483
230 2 282 283
231 2 41 77
232 1 13 15
233 1 45 47
234 1 392 420
235 1 272 275
236 2 452 471
237 1 403 429
238 1 63 101
239 2 415 440
240 2 2 5
241 2 55 97
242 1 45 83
243 2 46 48
244 1 393 421
245 2 52 91
246 1 305 308
247 1 377 413
248 1 337 340
249 2 156 185
250 2 67 107
251 2 159 190
252 2 367 368
253 1 338 341
254 1 370 373
255 2 349 350
256 1 148 180
257 1 1 18
258 1 112 114
259 2 400 401
260 1 371 374
261 1 403 406
262 2 382 383
263 1 149 181
264 2 415 417
265 2 81 126
266 2 233 260
267 2 145 147
268 1 244 269
269 1 404 407
270 2 4 28
271 1 436 439
272 1 448 450
273 2 255 284
274 2 466 467
275 1 437 440
276 2 115 160
277 1 481 483
278 2 168 172
279 1 179 181
280 1 211 213
281 1 470 473
282 2 329 354
283 2 300 327
284 2 233 237
285 2 212 214
286 2 33 68
287 1 245 247
288 1 23 54
289 2 15 50
290 1 8 11
291 1 466 480
292 1 410 436
293 1 429 449
294 2 41 44
295 2 300 304
296 2 391 422
297 1 311 313
298 2 70 107
299 1 42 45
300 2 361 399
301 2 332 372
302 2 373 410
303 1 377 380
304 2 104 105
305 2 195 223
306 1 107 110
307 1 166 196
308 2 86 87
309 1 218 243
310 2 52 94
311 2 117 160
312 1 410 413
313 2 236 260
314 1 108 111
315 1 207 233
316 1 140 143
317 2 119 120
318 2 367 371
319 2 7 28
320 2 440 441
321 1 251 276
322 1 77 123
323 2 258 284
324 2 170 171
325 2 261 289
326 1 141 144
327 2 240 266
328 2 400 404
329 2 99 147
330 1 185 187
331 2 432 436
332 2 102 152
333 1 476 479
334 2 203 204
335 2 218 220
336 1 477 480
337 2 303 327
338 2 236 237
339 2 207 210
340 2 466 470
341 1 251 253
342 2 18 51
343 2 317 347
344 1 29 60
345 1 240 243
346 2 43 80
347 2 394 423
348 2 26 27
349 2 306 310
350 1 285 287
351 2 33 35
352 2 4 8
353 2 36 40
354 2 15 17
355 2 303 304
356 1 274 277
357 2 406 433
358 1 65 103
359 1 48 50
360 1 369 371
361 1 307 310
362 2 180 206
363 1 379 415
364 1 66 104
365 1 351 353
366 2 58 100
367 2 198 223
368 2 338 383
369 2 70 74
370 2 81 83
371 1 402 404
372 1 340 343
373 2 373 377
374 1 384 386
375 2 151 184
376 1 83 129
377 2 162 193
378 2 243 267
379 1 147 150
380 2 435 437
381 2 406 410
382 2 105 153
383 1 232 257
384 1 84 130
385 2 224 253
386 2 177 178
387 2 136 140
388 2 268 296
389 1 180 183
390 2 265 290
391 2 117 163
392 1 181 184
393 1 280 306
394 2 7 31
395 2 192 193
396 2 258 287
397 2 243 244
398 1 214 217
399 2 21 51
400 2 13 47
401 2 312 343
402 2 24 56
403 1 232 234
404 2 276 277
405 1 247 250
406 2 265 267
407 2 397 423
408 2 277 278
409 2 309 310
410 1 280 283
411 2 7 8
412 2 438 460
413 2 43 47
414 1 72 110
415 2 64 106
416 2 183 206
417 1 343 344
418 2 55 57
419 1 334 375
420 2 61 100
421 1 346 349
422 2 73 74
423 1 44 47
424 2 376 377
425 1 194 220
426 1 379 382
427 2 186 216
428 2 139 141
429 1 238 263
430 1 77 80
431 2 230 259
432 2 409 410
433 2 108 153
434 2 198 226
435 2 90 135
436 1 239 264
437 2 271 296
438 1 413 416
439 2 120 163
440 1 464 467
441 1 446 449
442 1 16 47
443 1 479 482
444 1 239 241
445 2 13 14
446 1 31 62
447 2 452 470
448 2 243 247
449 2 463 479
450 1 2 4
451 2 14 15
452 2 46 47
453 1 17 20
454 1 305 307
455 2 67 106
456 2 46 83
457 2 338 340
458 1 50 53
459 2 309 313
460 2 320 322
461 1 367 403
462 2 80 81
463 1 179 203
464 1 160 190
465 2 370 408
466 1 83 86
467 2 415 416
468 1 201 227
469 1 113 114
470 2 204 232
471 1 116 119
472 2 448 449
473 1 104 150
474 1 437 439
475 2 96 146
476 1 86 132
477 1 168 171
478 1 267 293
479 2 179 180
480 2 238 266
481 2 438 440
482 1 150 153
483 2 212 213
484 2 271 299
485 1 471 473
486 1 234 237
487 2 245 246
488 1 216 219
489 1 267 270
490 2 326 356
491 1 38 69
492 2 466 479
493 2 246 247
494 1 249 252
495 2 429 448
496 1 9 11
497 2 27 59
498 1 399 425
499 2 279 280
500 2 311 312
501 1 282 285
502 2 41 79
503 1 42 44
504 1 400 426
505 1 373 409
506 2 312 313
507 2 452 473
508 2 403 431
509 1 74 112
510 2 46 50
511 1 57 59
512 2 345 346
513 2 218 242
514 1 144 176
515 2 156 187
516 2 67 109
517 2 108 110
518 2 207 232
519 1 367 370
520 2 378 379
521 2 90 92
522 1 118 160
523 2 148 182
524 2 1 20
525 1 141 143
526 1 240 265
527 1 273 299
528 1 400 403
529 2 252 276
530 2 185 186
531 2 78 123
532 2 411 412
533 2 81 128
534 2 142 144
535 1 241 266
536 2 233 262
537 2 145 149
538 1 433 436
539 2 477 479
540 1 303 326
541 2 274 299
542 1 466 469
543 2 445 446
544 1 208 210
545 2 252 253
546 2 30 60
547 2 329 356
548 2 285 286
549 1 256 259
550 1 4 7
551 2 15 16
552 2 274 276
553 1 406 432
554 1 425 445
555 2 48 49
556 1 395 422
557 2 180 205
558 1 19 22
559 2 466 482
560 2 319 320
561 2 351 352
562 2 49 50
563 2 81 82
564 2 388 419
565 1 340 342
566 1 373 376
567 2 352 353
568 2 384 385
569 2 70 109
570 1 151 183
571 1 162 192
572 2 361 401
573 1 214 239
574 2 332 374
575 1 406 409
576 2 385 386
577 2 84 129
578 1 417 418
579 2 76 125
580 1 203 229
581 1 104 107
582 1 163 193
583 2 195 225
584 2 115 116
585 1 247 272
586 1 137 140
587 2 236 262
588 2 148 149
589 1 248 273
590 2 280 305
591 1 440 443
592 2 451 452
593 1 170 173
594 1 269 295
595 1 214 216
596 2 99 149
597 1 484 485
598 1 203 206
599 2 182 183
600 1 306 335
601 2 218 222
602 1 25 56
603 2 215 216
604 1 248 250
605 2 280 282
606 1 431 451
607 2 18 53
608 1 269 272
609 1 313 315
610 2 43 82
611 2 55 56
612 1 26 29
613 2 33 37
614 2 364 402
615 2 15 19
616 2 335 375
617 1 375 411
618 2 346 384
619 1 77 79
620 2 177 203
621 1 110 113
622 1 209 235
623 2 89 90
624 1 336 339
625 1 376 412
626 2 180 208
627 2 379 417
628 1 79 125
629 2 99 103
630 2 198 225
631 2 78 80
632 2 81 85
633 2 122 123
634 2 221 245
635 1 381 383
636 1 80 126
637 1 120 162
638 2 111 113
639 2 243 269
640 1 275 301
641 2 155 156
642 2 435 439
643 1 414 416
644 2 446 448
645 1 144 146
646 1 177 180
647 1 276 302
648 2 268 298
649 2 188 189
650 1 479 481
651 2 265 292
652 2 221 222
653 2 480 482
654 1 243 246
655 2 254 255
656 2 21 53
657 1 17 19
658 1 6 9
659 2 18 20
660 2 265 269
661 2 397 425
662 1 309 312
663 1 408 434
664 1 288 289
665 2 320 321
666 1 68 106
667 1 7 10
668 1 50 88
669 1 51 53
670 2 349 384
671 1 310 313
672 1 409 435
673 1 331 372
674 2 84 86
675 2 183 208
676 2 382 417
677 1 375 378
678 2 142 176
679 2 354 355
680 2 145 181
681 2 117 119
682 1 216 241
683 1 376 379
684 1 408 411
685 2 387 388
686 1 165 195
687 2 139 143
688 2 10 29
689 1 150 152
690 2 438 439
691 1 249 274
692 1 409 412
693 2 441 444
694 2 87 132
695 2 198 228
696 2 90 137
697 2 271 298
698 2 151 153
699 2 283 308